,Eg (eV),Comp,composition,mp_ids
3417,0.0,LiMn4O8,Li1 Mn4 O8,"['mp-1293437', 'mp-769702', 'mp-1195443', 'mp-752921', 'mp-1003315', 'mp-35530', 'mp-770104', 'mp-1004762']"
3418,0.0,HfCu2P2,Hf1 Cu2 P2,['mp-15986']
3419,0.0,Er3Al3NiGe2,Er3 Al3 Ni1 Ge2,['mp-12388']
3420,0.0,LiMnCoO4,Li1 Mn1 Co1 O4,"['mp-1176646', 'mp-1176657', 'mp-753984']"
3421,0.0,ErHg2,Er1 Hg2,['mp-11369']
3422,0.0,Mg3Tl,Mg3 Tl1,"['mp-864938', 'mp-1185786', 'mp-1185792']"
3423,0.0,Ni2Mo4C,Ni2 Mo4 C1,['mp-21536']
3424,0.0,Cu3P4O14,Cu3 P4 O14,"['mp-673105', 'mp-1190666', 'mp-772942']"
3425,0.0,LiScHg2,Li1 Sc1 Hg2,['mp-863659']
3426,0.0,KLu,K1 Lu1,['mp-973245']
3427,0.0,InAg3,In1 Ag3,"['mp-1223839', 'mp-1223787', 'mp-30343']"
3428,0.0,SnB,Sn1 B1,['mp-978886']
3429,0.0,Zr2Se,Zr2 Se1,['mp-22642']
3430,0.0,Ti4NiBi2,Ti4 Ni1 Bi2,['mp-571457']
3431,0.0,HPbI3,H1 Pb1 I3,['mp-1004524']
3432,0.0,Bi4I,Bi4 I1,['mp-583234']
3433,0.0,PrAl3Ni2,Pr1 Al3 Ni2,['mp-30181']
3434,0.0,SmHoHg2,Sm1 Ho1 Hg2,['mp-978536']
3435,0.0,Li4Ni2(PO4)3,Li4 Ni2 P3 O12,"['mp-849437', 'mp-772620']"
3436,0.0,InHgW2,In1 Hg1 W2,['mp-631431']
3437,0.0,CaCdSi,Ca1 Cd1 Si1,['mp-962078']
3438,0.0,Eu2PBr,Eu2 P1 Br1,['mp-613052']
3439,0.0,EuNiGe3,Eu1 Ni1 Ge3,['mp-974769']
3440,0.0,EuSeClO3,Eu1 Se1 Cl1 O3,['mp-639138']
3441,0.0,YbTbRh2,Yb1 Tb1 Rh2,['mp-865258']
3442,0.0,NbHO3,Nb1 H1 O3,"['mp-626528', 'mp-626536', 'mp-33932']"
3443,0.0,Ce3NbS3O4,Ce3 Nb1 S3 O4,['mp-683997']
3444,0.0,Cs2SCl6F,Cs2 S1 Cl6 F1,['mp-989521']
3445,0.0,Al6Tc,Al6 Tc1,['mp-16718']
3446,0.0,V4ZnO8,V4 Zn1 O8,"['mvc-13217', 'mvc-12584', 'mvc-159']"
3447,0.0,Sr6Nb7O21,Sr6 Nb7 O21,"['mp-1173080', 'mp-676519']"
3448,0.0,Nd2ZnGa,Nd2 Zn1 Ga1,['mp-976344']
3449,0.0,TbCl,Tb1 Cl1,"['mp-27923', 'mp-568342']"
3450,0.0,Li3Mn4(PO4)6,Li3 Mn4 P6 O24,"['mp-766381', 'mp-766211', 'mp-766502', 'mp-766527', 'mp-767614', 'mp-767568']"
3451,0.0,TiHgO3,Ti1 Hg1 O3,"['mp-1016842', 'mp-7607']"
3452,0.0,Li12Fe5O16,Li12 Fe5 O16,['mp-760142']
3453,0.0,NaTl,Na1 Tl1,"['mp-1078955', 'mp-1564', 'mp-1079298', 'mp-1192187']"
3454,0.0,Tm2MgRu,Tm2 Mg1 Ru1,['mp-865363']
3455,0.0,Nb6Co7,Nb6 Co7,"['mp-622633', 'mp-7250']"
3456,0.0,Mn3Cr3(CoO8)2,Mn3 Cr3 Co2 O16,['mp-780886']
3457,0.0,Li2MgHg,Li2 Mg1 Hg1,"['mp-973343', 'mp-1222646']"
3458,0.0,PrSbPt,Pr1 Sb1 Pt1,['mp-1018902']
3459,0.0,Lu2TlAg,Lu2 Tl1 Ag1,['mp-866131']
3460,0.0,ThAl8Fe4,Th1 Al8 Fe4,['mp-4703']
3461,0.0,NaCdO3,Na1 Cd1 O3,['mp-976293']
3462,0.0,MnNbO4,Mn1 Nb1 O4,['mp-754809']
3463,0.0,Pr4MgRu,Pr4 Mg1 Ru1,['mp-605873']
3464,0.0,CeSi2Au2,Ce1 Si2 Au2,['mp-5173']
3465,0.0,CaIrO3,Ca1 Ir1 O3,"['mp-1016872', 'mp-555735', 'mp-4243', 'mp-20198', 'mp-1079054']"
3466,0.0,ZrAlW,Zr1 Al1 W1,['mp-631503']
3467,0.0,CeCdAu2,Ce1 Cd1 Au2,['mp-866185']
3468,0.0,MnB2W2,Mn1 B2 W2,['mp-19789']
3469,0.0,ZrTi2O,Zr1 Ti2 O1,"['mp-752953', 'mp-1215204', 'mp-27296']"
3470,0.0,LiLu2Ga,Li1 Lu2 Ga1,['mp-976596']
3471,0.0,P2H4RhO9,P2 H4 Rh1 O9,['mp-733876']
3472,0.0,Re5Ni2As12,Re5 Ni2 As12,['mp-504815']
3473,0.0,ScRh3C,Sc1 Rh3 C1,['mp-10712']
3474,0.0,CeOs2,Ce1 Os2,"['mp-1102302', 'mp-2098']"
3475,0.0,Dy2CdPd2,Dy2 Cd1 Pd2,['mp-12977']
3476,0.0,NdNi2Sn2,Nd1 Ni2 Sn2,"['mp-20000', 'mp-569860']"
3477,0.0,Na2V6O13,Na2 V6 O13,['mp-753267']
3478,0.0,HfTc,Hf1 Tc1,['mp-11460']
3479,0.0,SmMg3,Sm1 Mg3,"['mp-972494', 'mp-30779']"
3480,0.0,YSi2,Y1 Si2,"['mp-12769', 'mp-2568']"
3481,0.0,Li6FeO5F,Li6 Fe1 O5 F1,"['mp-757357', 'mp-764903']"
3482,0.0,Tl2Mo7O22,Tl2 Mo7 O22,['mp-704535']
3483,0.0,Cu2OF2,Cu2 O1 F2,"['mp-754084', 'mp-759897', 'mp-753831', 'mp-760190']"
3484,0.0,LiFe2(PO4)3,Li1 Fe2 P3 O12,"['mp-26581', 'mp-699352', 'mp-26054', 'mp-543094', 'mp-1101593', 'mp-759608', 'mp-540420', 'mp-26070', 'mp-697784', 'mp-1101524']"
3485,0.0,UGaNi,U1 Ga1 Ni1,['mp-21320']
3486,0.0,KTm,K1 Tm1,['mp-974062']
3487,0.0,LiTi11O20,Li1 Ti11 O20,['mp-772108']
3488,0.0,Mg2GeB2Rh5,Mg2 Ge1 B2 Rh5,['mp-505693']
3489,0.0,NdSmHg2,Nd1 Sm1 Hg2,['mp-975049']
3490,0.0,PrInAu2,Pr1 In1 Au2,['mp-570611']
3491,0.0,Li3Co4O8,Li3 Co4 O8,"['mp-1303525', 'mp-1315554', 'mp-850808', 'mp-1303680', 'mp-1298652', 'mp-764781', 'mp-759191', 'mp-1177904', 'mp-1297722', 'mp-1303299', 'mp-1302545', 'mp-759246', 'mvc-16807']"
3492,0.0,CdRhF6,Cd1 Rh1 F6,['mp-15638']
3493,0.0,UCo2Ge2,U1 Co2 Ge2,"['mp-20776', 'mp-1079975']"
3494,0.0,Tb3Ge5,Tb3 Ge5,"['mp-2321', 'mp-1187292']"
3495,0.0,Yb2HgPb,Yb2 Hg1 Pb1,['mp-865908']
3496,0.0,YSi2Cu2,Y1 Si2 Cu2,['mp-3390']
3497,0.0,Li4VF7,Li4 V1 F7,"['mp-753113', 'mp-764769']"
3498,0.0,MgIn3,Mg1 In3,"['mp-1185630', 'mp-20566', 'mp-973320', 'mp-973308']"
3499,0.0,CeMg2Ag,Ce1 Mg2 Ag1,['mp-31175']
3500,0.0,KNb2Se,K1 Nb2 Se1,['mp-631304']
3501,0.0,Fe4O7F,Fe4 O7 F1,"['mp-782646', 'mp-780895', 'mp-780855', 'mp-756848', 'mp-780891', 'mp-850996', 'mp-753196', 'mp-997553', 'mp-780870', 'mp-780858', 'mp-755857', 'mp-1178327', 'mp-780868', 'mp-753194', 'mp-756792', 'mp-753155', 'mp-764884', 'mp-780861', 'mp-763491', 'mp-759590', 'mp-764883', 'mp-758585', 'mp-850933', 'mp-780854', 'mp-754194']"
3502,0.0,EuCu9Sn4,Eu1 Cu9 Sn4,['mp-568497']
3503,0.0,La2CuO4,La2 Cu1 O4,"['mp-19735', 'mp-1223234', 'mp-1077929', 'mp-673846', 'mp-1180676', 'mp-36480']"
3504,0.0,CaCo4S8,Ca1 Co4 S8,"['mvc-62', 'mvc-14448']"
3505,0.0,MnCoSi,Mn1 Co1 Si1,"['mp-961696', 'mp-10365', 'mp-19809']"
3506,0.0,GdGeRu,Gd1 Ge1 Ru1,['mp-19714']
3507,0.0,Al10V,Al10 V1,['mp-16722']
3508,0.0,KHg11,K1 Hg11,['mp-11952']
3509,0.0,Eu2BaMn2O7,Eu2 Ba1 Mn2 O7,"['mp-579071', 'mp-1183437']"
3510,0.0,Li6Mn5FeO12,Li6 Mn5 Fe1 O12,['mp-765561']
3511,0.0,Hg2Rh,Hg2 Rh1,['mp-11870']
3512,0.0,Ba3PN,Ba3 P1 N1,"['mp-1013533', 'mp-1013707']"
3513,0.0,Zr5Al3C,Zr5 Al3 C1,['mp-972176']
3514,0.0,Li3Mn3WO8,Li3 Mn3 W1 O8,['mp-756701']
3515,0.0,LiFe2(SiO4)2,Li1 Fe2 Si2 O8,"['mp-758113', 'mp-850962', 'mp-780871']"
3516,0.0,Sc6Te2Os,Sc6 Te2 Os1,['mp-11754']
3517,0.0,NaBi3,Na1 Bi3,['mp-972941']
3518,0.0,TmCu2S2,Tm1 Cu2 S2,['mp-1018640']
3519,0.0,Ce2Al2Co15,Ce2 Al2 Co15,['mp-16484']
3520,0.0,LaSi2Ru2,La1 Si2 Ru2,['mp-5105']
3521,0.0,AgW6Br14,Ag1 W6 Br14,['mp-29717']
3522,0.0,Ba3Co10O17,Ba3 Co10 O17,['mp-562649']
3523,0.0,LuScRh2,Lu1 Sc1 Rh2,['mp-973432']
3524,0.0,LaBPt3,La1 B1 Pt3,['mp-1018633']
3525,0.0,Li5Mn5(SbO6)2,Li5 Mn5 Sb2 O12,['mp-773202']
3526,0.0,Be12Pt,Be12 Pt1,['mp-571622']
3527,0.0,LaZnAu2,La1 Zn1 Au2,['mp-867836']
3528,0.0,CsScBr3,Cs1 Sc1 Br3,"['mp-998435', 'mp-998308']"
3529,0.0,ErSiPd,Er1 Si1 Pd1,"['mp-1225473', 'mp-17093']"
3530,0.0,SmSnPd,Sm1 Sn1 Pd1,['mp-571581']
3531,0.0,EuPd,Eu1 Pd1,['mp-1018147']
3532,0.0,YbMn2As2,Yb1 Mn2 As2,['mp-9592']
3533,0.0,Ni23B6,Ni23 B6,['mp-20962']
3534,0.0,Gd2AlCo2,Gd2 Al1 Co2,['mp-637222']
3535,0.0,PrAu,Pr1 Au1,"['mp-11255', 'mp-1079915', 'mp-999306']"
3536,0.0,TmMgAg2,Tm1 Mg1 Ag2,['mp-971868']
3537,0.0,Ho5Ge10Rh4,Ho5 Ge10 Rh4,['mp-21816']
3538,0.0,SrNi2(PO4)2,Sr1 Ni2 P2 O8,['mp-18252']
3539,0.0,TaAl3,Ta1 Al3,['mp-869']
3540,0.0,CeB2Ir3,Ce1 B2 Ir3,['mp-11593']
3541,0.0,Hf6PbO18,Hf6 Pb1 O18,['mp-675600']
3542,0.0,LiLa2IrO6,Li1 La2 Ir1 O6,['mp-11992']
3543,0.0,FeCo2Si,Fe1 Co2 Si1,['mp-5436']
3544,0.0,Ca2CdPb,Ca2 Cd1 Pb1,['mp-865167']
3545,0.0,YAlGe,Y1 Al1 Ge1,['mp-29736']
3546,0.0,ZrAlRu2,Zr1 Al1 Ru2,['mp-977436']
3547,0.0,YbBO3,Yb1 B1 O3,"['mp-14237', 'mp-5364', 'mp-1215682']"
3548,0.0,In11Cu9Se20,In11 Cu9 Se20,['mp-677803']
3549,0.0,TmIn3,Tm1 In3,['mp-21177']
3550,0.0,UGeRh,U1 Ge1 Rh1,['mp-20321']
3551,0.0,MgTi11O20,Mg1 Ti11 O20,"['mp-1222072', 'mp-766100']"
3552,0.0,TbNi4P2,Tb1 Ni4 P2,['mp-505597']
3553,0.0,TmAu2,Tm1 Au2,['mp-560']
3554,0.0,Cr3Ni(PO4)6,Cr3 Ni1 P6 O24,['mp-774406']
3555,0.0,Hf2Fe,Hf2 Fe1,['mp-2754']
3556,0.0,Pm2LiAl,Pm2 Li1 Al1,['mp-861948']
3557,0.0,Co5RuO8,Co5 Ru1 O8,"['mp-35690', 'mp-530751']"
3558,0.0,U2Cr30P19,U2 Cr30 P19,['mp-21819']
3559,0.0,YbI3O9,Yb1 I3 O9,['mp-558464']
3560,0.0,BiAs2Os,Bi1 As2 Os1,['mp-631577']
3561,0.0,Yb4Ba3O9,Yb4 Ba3 O9,['mp-8261']
3562,0.0,ZnFe2N2,Zn1 Fe2 N2,['mvc-13889']
3563,0.0,Zr6NiCl15,Zr6 Ni1 Cl15,['mp-653981']
3564,0.0,Er5Si3,Er5 Si3,['mp-31167']
3565,0.0,Hg2Sb2O7,Hg2 Sb2 O7,['mp-557697']
3566,0.0,ScGe2,Sc1 Ge2,['mp-10212']
3567,0.0,Sc6FeSb2,Sc6 Fe1 Sb2,['mp-11201']
3568,0.0,Li3Si3Ag2,Li3 Si3 Ag2,['mp-29165']
3569,0.0,Dy4CdRh,Dy4 Cd1 Rh1,['mp-570768']
3570,0.0,BeGaRh2,Be1 Ga1 Rh2,['mp-862291']
3571,0.0,Ba3NaIrO6,Ba3 Na1 Ir1 O6,['mp-9746']
3572,0.0,ScZn2,Sc1 Zn2,['mp-13503']
3573,0.0,Mg3Rh,Mg3 Rh1,['mp-542429']
3574,0.0,Sr3Sn4Ir4,Sr3 Sn4 Ir4,['mp-22418']
3575,0.0,TiMn2Ge,Ti1 Mn2 Ge1,['mp-866376']
3576,0.0,CoH2(SN)4,Co1 H2 S4 N4,['mp-734944']
3577,0.0,PH2NO2,P1 H2 N1 O2,['mp-696678']
3578,0.0,HoSb2,Ho1 Sb2,['mp-7925']
3579,0.0,Zr2In5Ni,Zr2 In5 Ni1,['mp-602268']
3580,0.0,U2Zn17,U2 Zn17,"['mp-680401', 'mp-1179586', 'mp-569518', 'mp-528']"
3581,0.0,CeAgSn,Ce1 Ag1 Sn1,['mp-31420']
3582,0.0,Ho2CuRh,Ho2 Cu1 Rh1,['mp-867284']
3583,0.0,Ba2Cu5F14,Ba2 Cu5 F14,['mp-29457']
3584,0.0,Sr2Cu(ClO)2,Sr2 Cu1 Cl2 O2,"['mp-1147538', 'mp-23102']"
3585,0.0,YbLaZn2,Yb1 La1 Zn2,['mp-865833']
3586,0.0,ZrNiGe,Zr1 Ni1 Ge1,"['mp-1102687', 'mp-961662']"
3587,0.0,Zr7Sb4,Zr7 Sb4,['mp-32967']
3588,0.0,DyGe2Ru2,Dy1 Ge2 Ru2,['mp-21082']
3589,0.0,Mg2PdAu,Mg2 Pd1 Au1,['mp-864972']
3590,0.0,BaNi2P4,Ba1 Ni2 P4,"['mp-28927', 'mp-571420']"
3591,0.0,RbNa2NiO2,Rb1 Na2 Ni1 O2,['mp-546033']
3592,0.0,HoMgZn2,Ho1 Mg1 Zn2,['mp-861981']
3593,0.0,Ba4Si20Au3,Ba4 Si20 Au3,['mp-17815']
3594,0.0,HgPt,Hg1 Pt1,['mp-623']
3595,0.0,Hf2S,Hf2 S1,['mp-10000']
3596,0.0,CrAs,Cr1 As1,"['mp-20717', 'mp-568565']"
3597,0.0,MgCuSn,Mg1 Cu1 Sn1,"['mp-636240', 'mp-11361']"
3598,0.0,YbIn4Ni,Yb1 In4 Ni1,"['mp-1102692', 'mp-672394']"
3599,0.0,LuUO3,Lu1 U1 O3,['mp-973536']
3600,0.0,LiAl2Tc,Li1 Al2 Tc1,['mp-982666']
3601,0.0,Al9Rh2,Al9 Rh2,['mp-1645']
3602,0.0,Ba2Ce2O5,Ba2 Ce2 O5,['mp-769656']
3603,0.0,HoMn6Sn6,Ho1 Mn6 Sn6,['mp-20630']
3604,0.0,Li17Ti20O40,Li17 Ti20 O40,['mp-677305']
3605,0.0,YSiRu,Y1 Si1 Ru1,['mp-21069']
3606,0.0,SmAu3,Sm1 Au3,['mp-30417']
3607,0.0,SiHg3,Si1 Hg3,"['mp-978533', 'mp-978652']"
3608,0.0,CdPt,Cd1 Pt1,['mp-1194']
3609,0.0,HoBi2O6,Ho1 Bi2 O6,['mvc-10023']
3610,0.0,PmCdPd2,Pm1 Cd1 Pd2,['mp-862898']
3611,0.0,Tm2ZnGa,Tm2 Zn1 Ga1,['mp-972244']
3612,0.0,Al2CoIr,Al2 Co1 Ir1,['mp-867319']
3613,0.0,MgCo2(PO5)2,Mg1 Co2 P2 O10,['mvc-9000']
3614,0.0,Sn3P3O13,Sn3 P3 O13,['mvc-10331']
3615,0.0,ScTi9N9,Sc1 Ti9 N9,['mp-37808']
3616,0.0,BaZn5,Ba1 Zn5,['mp-303']
3617,0.0,Ge5Te8As2,Ge5 Te8 As2,"['mp-675637', 'mp-28487']"
3618,0.0,Hf3Sb,Hf3 Sb1,['mp-15964']
3619,0.0,Hf2Al3C4,Hf2 Al3 C4,['mp-570784']
3620,0.0,BaB2Rh2,Ba1 B2 Rh2,['mp-7349']
3621,0.0,Zn3N2,Zn3 N2,"['mp-754553', 'mp-9460']"
3622,0.0,Sm2IrPd,Sm2 Ir1 Pd1,['mp-867142']
3623,0.0,Dy2Sn5,Dy2 Sn5,['mp-568064']
3624,0.0,MgFe4O8,Mg1 Fe4 O8,"['mvc-12639', 'mvc-11658']"
3625,0.0,LiLu2Tc,Li1 Lu2 Tc1,['mp-977386']
3626,0.0,Rb3Ga,Rb3 Ga1,['mp-975015']
3627,0.0,U3Ni3Sn4,U3 Ni3 Sn4,['mp-567905']
3628,0.0,TbAl8Fe4,Tb1 Al8 Fe4,['mp-3546']
3629,0.0,LuCdAg2,Lu1 Cd1 Ag2,['mp-865977']
3630,0.0,Cr7C3,Cr7 C3,"['mp-1196316', 'mp-19855']"
3631,0.0,BePd3,Be1 Pd3,['mp-13453']
3632,0.0,LiAlB4,Li1 Al1 B4,['mp-995282']
3633,0.0,LuBPd3,Lu1 B1 Pd3,['mp-3105']
3634,0.0,Ca5Ir,Ca5 Ir1,['mp-570356']
3635,0.0,Ho2Au,Ho2 Au1,['mp-30385']
3636,0.0,ThPd3,Th1 Pd3,['mp-570184']
3637,0.0,Th6Mg23,Th6 Mg23,['mp-570442']
3638,0.0,Ca3Ga2Pt2,Ca3 Ga2 Pt2,['mp-31479']
3639,0.0,PrGaAu2,Pr1 Ga1 Au2,['mp-976125']
3640,0.0,Sm2In,Sm2 In1,['mp-19816']
3641,0.0,Mo3Pd2N,Mo3 Pd2 N1,['mp-542154']
3642,0.0,Y2AlZn,Y2 Al1 Zn1,['mp-865560']
3643,0.0,SmIn2Rh,Sm1 In2 Rh1,['mp-20666']
3644,0.0,Na3W4O12,Na3 W4 O12,"['mp-35005', 'mp-757849', 'mp-38257']"
3645,0.0,MnCdO2,Mn1 Cd1 O2,"['mp-1221645', 'mp-752688']"
3646,0.0,Al2Ru,Al2 Ru1,"['mp-10910', 'mp-1009834']"
3647,0.0,ErRu3,Er1 Ru3,"['mp-984705', 'mp-1184213']"
3648,0.0,Tm3Ge4Pd4,Tm3 Ge4 Pd4,['mp-9694']
3649,0.0,ThSi2Ru2,Th1 Si2 Ru2,['mp-5165']
3650,0.0,USeS,U1 Se1 S1,['mp-19924']
3651,0.0,Er2C3,Er2 C3,['mp-9544']
3652,0.0,Pr3Al4Si6,Pr3 Al4 Si6,['mp-571302']
3653,0.0,TmBRh3,Tm1 B1 Rh3,['mp-5438']
3654,0.0,Li5Mn3(FeO5)2,Li5 Mn3 Fe2 O10,['mp-757564']
3655,0.0,DySn3,Dy1 Sn3,"['mp-570860', 'mp-1078505']"
3656,0.0,EuSbO3,Eu1 Sb1 O3,['mp-976284']
3657,0.0,Li3Ni(SbO3)4,Li3 Ni1 Sb4 O12,['mp-849457']
3658,0.0,TbCo2B2,Tb1 Co2 B2,['mp-3893']
3659,0.0,DyFeSi,Dy1 Fe1 Si1,['mp-22698']
3660,0.0,Ta3P,Ta3 P1,"['mp-567846', 'mp-504502']"
3661,0.0,YbBa4(CuO3)3,Yb1 Ba4 Cu3 O9,['mp-653337']
3662,0.0,NdCo2Ge2,Nd1 Co2 Ge2,['mp-4999']
3663,0.0,Lu2Al3Co,Lu2 Al3 Co1,['mp-16490']
3664,0.0,Yb3Al5O12,Yb3 Al5 O12,['mp-3800']
3665,0.0,CoMoP2,Co1 Mo1 P2,"['mp-1025557', 'mp-1207206']"
3666,0.0,Ce5CuSe8,Ce5 Cu1 Se8,['mp-675739']
3667,0.0,YbSi2Ni,Yb1 Si2 Ni1,['mp-972406']
3668,0.0,AlFe2Si,Al1 Fe2 Si1,['mp-867878']
3669,0.0,EuPPt,Eu1 P1 Pt1,"['mp-1225129', 'mp-672290']"
3670,0.0,LiAlGe,Li1 Al1 Ge1,"['mp-961645', 'mp-5920']"
3671,0.0,SrAg,Sr1 Ag1,"['mp-30355', 'mp-568716']"
3672,0.0,YbAl2Ga2,Yb1 Al2 Ga2,['mp-573498']
3673,0.0,Nb2Sb,Nb2 Sb1,['mp-673700']
3674,0.0,Ba2LaIrO6,Ba2 La1 Ir1 O6,"['mp-15889', 'mp-1080123', 'mp-550081']"
3675,0.0,MgScAg2,Mg1 Sc1 Ag2,['mp-977554']
3676,0.0,Fe10O9F11,Fe10 O9 F11,"['mp-849275', 'mp-780773', 'mp-849307', 'mp-754536', 'mp-849419', 'mp-849306', 'mp-849483', 'mp-1178342', 'mp-754413', 'mp-849381', 'mp-780766', 'mp-849484', 'mp-849314', 'mp-849296', 'mp-754859', 'mp-780801', 'mp-849300', 'mp-780760', 'mp-849379', 'mp-754865']"
3677,0.0,YbAl2Ge2,Yb1 Al2 Ge2,['mp-4041']
3678,0.0,TmSb,Tm1 Sb1,"['mp-2520', 'mp-1002220']"
3679,0.0,TiV4CuO12,Ti1 V4 Cu1 O12,['mp-756111']
3680,0.0,RbTmO3,Rb1 Tm1 O3,['mp-981550']
3681,0.0,Ce8U2O21,Ce8 U2 O21,['mp-674412']
3682,0.0,Dy2ZnIn,Dy2 Zn1 In1,['mp-865157']
3683,0.0,ZnCrO2,Zn1 Cr1 O2,"['mvc-13741', 'mvc-12575', 'mvc-5143', 'mvc-2699']"
3685,0.0,Sc3BPb,Sc3 B1 Pb1,['mp-10133']
3686,0.0,TaCoSn2,Ta1 Co1 Sn2,['mp-631635']
3687,0.0,TiTc2Sb,Ti1 Tc2 Sb1,['mp-865809']
3688,0.0,Li3V12O29,Li3 V12 O29,['mp-772492']
3689,0.0,Nd2CdIn,Nd2 Cd1 In1,['mp-866067']
3690,0.0,ZrHCl,Zr1 H1 Cl1,['mp-1024958']
3691,0.0,MnCu3,Mn1 Cu3,['mp-974747']
3692,0.0,V2Sb(PO4)3,V2 Sb1 P3 O12,['mp-772810']
3693,0.0,NdErTl2,Nd1 Er1 Tl2,['mp-974523']
3694,0.0,Hf2Hg,Hf2 Hg1,['mp-1018154']
3695,0.0,Ca3BiSb,Ca3 Bi1 Sb1,"['mp-1013733', 'mp-1013704']"
3696,0.0,CsWCl6,Cs1 W1 Cl6,['mp-30974']
3697,0.0,TiGaIr2,Ti1 Ga1 Ir2,['mp-866142']
3698,0.0,HoB4,Ho1 B4,['mp-569281']
3699,0.0,LiTm2Ru,Li1 Tm2 Ru1,['mp-862614']
3700,0.0,Ti2CoGe,Ti2 Co1 Ge1,['mp-999067']
3701,0.0,Tm3GaC,Tm3 Ga1 C1,['mp-10351']
3702,0.0,Nd4O3F7,Nd4 O3 F7,['mp-753772']
3703,0.0,LiCa2Ga,Li1 Ca2 Ga1,['mp-867805']
3704,0.0,LaFe4As12,La1 Fe4 As12,['mp-22470']
3705,0.0,Ho3AlC,Ho3 Al1 C1,['mp-29677']
3706,0.0,CaB2C2,Ca1 B2 C2,"['mp-10289', 'mp-15607']"
3707,0.0,YSi2Pt2,Y1 Si2 Pt2,"['mp-3999', 'mp-1080646']"
3708,0.0,Sc2FeB2Ir5,Sc2 Fe1 B2 Ir5,['mp-22425']
3709,0.0,U3Bi4,U3 Bi4,['mp-23196']
3710,0.0,EuSnO3,Eu1 Sn1 O3,['mp-862606']
3711,0.0,EuMn2Ge2,Eu1 Mn2 Ge2,['mp-672298']
3712,0.0,EuNi12B6,Eu1 Ni12 B6,['mp-580731']
3713,0.0,Na8PO3,Na8 P1 O3,['mp-1020638']
3714,0.0,BeFe2Si,Be1 Fe2 Si1,['mp-862669']
3715,0.0,CuP2(HO3)2,Cu1 P2 H2 O6,['mp-720380']
3716,0.0,U2Ti,U2 Ti1,['mp-1709']
3717,0.0,CaInAu,Ca1 In1 Au1,['mp-20378']
3718,0.0,Nb3IrSe8,Nb3 Ir1 Se8,"['mp-1220676', 'mp-1173033', 'mp-675066']"
3719,0.0,UCoSi,U1 Co1 Si1,"['mp-1178888', 'mp-20811']"
3720,0.0,DyBiPd,Dy1 Bi1 Pd1,['mp-1009543']
3721,0.0,LaIn4Au2,La1 In4 Au2,['mp-21523']
3722,0.0,LiAl3,Li1 Al3,"['mp-975906', 'mp-10890']"
3723,0.0,EuZn2Ge2,Eu1 Zn2 Ge2,"['mp-20771', 'mp-19808']"
3724,0.0,VAg(PSe3)2,V1 Ag1 P2 Se6,['mp-6543']
3725,0.0,Y2Fe2Si2C,Y2 Fe2 Si2 C1,['mp-1025339']
3726,0.0,La3ZrSb5,La3 Zr1 Sb5,['mp-9435']
3727,0.0,Sr2GeN2,Sr2 Ge1 N2,"['mp-568338', 'mp-29089']"
3728,0.0,VFeRu2,V1 Fe1 Ru2,['mp-980749']
3729,0.0,U4N7,U4 N7,['mp-32590']
3730,0.0,Al6Fe,Al6 Fe1,['mp-570001']
3731,0.0,Cs2SeClF6,Cs2 Se1 Cl1 F6,['mp-989544']
3732,0.0,Hf5Si4,Hf5 Si4,['mp-17216']
3733,0.0,MnCo4O8,Mn1 Co4 O8,['mp-773238']
3734,0.0,LiMg2Ag,Li1 Mg2 Ag1,['mp-864598']
3735,0.0,Ba3Nb2CoO9,Ba3 Nb2 Co1 O9,"['mp-31514', 'mp-561599']"
3736,0.0,Ga9Rh2,Ga9 Rh2,"['mp-1190908', 'mp-31312']"
3737,0.0,Zr3Hg,Zr3 Hg1,['mp-1630']
3738,0.0,ThSi2Ru3,Th1 Si2 Ru3,['mp-1025056']
3739,0.0,Cr2HgSe4,Cr2 Hg1 Se4,['mp-5602']
3740,0.0,DyAgHg2,Dy1 Ag1 Hg2,['mp-867898']
3741,0.0,Al4Cu2O7,Al4 Cu2 O7,['mp-29225']
3742,0.0,CeSI,Ce1 S1 I1,['mp-680698']
3743,0.0,BaMn4ZnO8,Ba1 Mn4 Zn1 O8,['mvc-922']
3744,0.0,Ce2Fe17,Ce2 Fe17,"['mp-654', 'mp-1195962']"
3745,0.0,HoTiO3,Ho1 Ti1 O3,['mp-755236']
3746,0.0,Zr3Al4C6,Zr3 Al4 C6,['mp-569831']
3747,0.0,Li7Ni11O22,Li7 Ni11 O22,['mp-768079']
3748,0.0,Ho5Si4,Ho5 Si4,['mp-542829']
3749,0.0,SmC10,Sm1 C10,['mp-17420']
3750,0.0,CeCo4B4,Ce1 Co4 B4,['mp-22165']
3751,0.0,Li2LaTl,Li2 La1 Tl1,['mp-866195']
3752,0.0,TbNiO3,Tb1 Ni1 O3,"['mp-1187352', 'mp-755865', 'mp-770347']"
3753,0.0,Ga3Pt2,Ga3 Pt2,['mp-21400']
3754,0.0,Mn3V2(SiO4)3,Mn3 V2 Si3 O12,['mp-14046']
3755,0.0,LaMg(FeO3)2,La1 Mg1 Fe2 O6,['mvc-8912']
3756,0.0,YbGeRh,Yb1 Ge1 Rh1,['mp-20498']
3757,0.0,CaCu5,Ca1 Cu5,['mp-1882']
3758,0.0,ErPbAu,Er1 Pb1 Au1,['mp-30377']
3759,0.0,TbNiGe2,Tb1 Ni1 Ge2,['mp-4288']
3760,0.0,Li3Mn2CuO6,Li3 Mn2 Cu1 O6,['mp-757232']
3761,0.0,TmBPd3,Tm1 B1 Pd3,['mp-10134']
3762,0.0,Ba3Al2Ge2,Ba3 Al2 Ge2,['mp-10669']
3763,0.0,DyZrSb,Dy1 Zr1 Sb1,['mp-5068']
3764,0.0,Ti11O18,Ti11 O18,['mp-760747']
3765,0.0,Tb2AlCo2,Tb2 Al1 Co2,['mp-13432']
3766,0.0,Zn2Sb3O8,Zn2 Sb3 O8,"['mvc-7691', 'mvc-14005']"
3767,0.0,YH2,Y1 H2,['mp-24650']
3768,0.0,Nb3In,Nb3 In1,"['mp-22060', 'mp-1220719']"
3769,0.0,Li2PrP2,Li2 Pr1 P2,['mp-7777']
3770,0.0,LaAl4Co,La1 Al4 Co1,['mp-12274']
3771,0.0,Ba3N2,Ba3 N2,"['mp-1214623', 'mp-1013528']"
3772,0.0,SrCuBi,Sr1 Cu1 Bi1,['mp-30451']
3773,0.0,Yb11Ni60C6,Yb11 Ni60 C6,['mp-8792']
3774,0.0,NaAsO3,Na1 As1 O3,"['mp-976133', 'mp-17868']"
3775,0.0,Li3Cu4NiO8,Li3 Cu4 Ni1 O8,['mp-756343']
3776,0.0,TbSnAu,Tb1 Sn1 Au1,['mp-31413']
3777,0.0,USbSe,U1 Sb1 Se1,['mp-9937']
3778,0.0,LiMnSiO4,Li1 Mn1 Si1 O4,"['mp-780325', 'mp-755125', 'mp-775156', 'mp-1249661', 'mp-753095', 'mp-850949', 'mp-850969', 'mp-758489', 'mp-780087', 'mp-780872', 'mp-755753', 'mp-1662331', 'mp-780147', 'mp-780196', 'mp-780533']"
3779,0.0,RbTiBr3,Rb1 Ti1 Br3,['mp-569807']
3780,0.0,Ti3Fe3O,Ti3 Fe3 O1,['mp-27884']
3781,0.0,Ti2Cd,Ti2 Cd1,['mp-30501']
3782,0.0,TaNiB2,Ta1 Ni1 B2,['mp-22709']
3783,0.0,HgIrO3,Hg1 Ir1 O3,['mp-1016831']
3784,0.0,ThMn2Ge2,Th1 Mn2 Ge2,['mp-21281']
3785,0.0,Li7Mo12S16,Li7 Mo12 S16,['mp-677108']
3786,0.0,V5SiB2,V5 Si1 B2,['mp-10126']
3787,0.0,ThIr5,Th1 Ir5,['mp-312']
3789,0.0,Tb2Ti3Ge4,Tb2 Ti3 Ge4,['mp-21712']
3790,0.0,TiCoSn,Ti1 Co1 Sn1,"['mp-20453', 'mp-1216949']"
3791,0.0,Hf5Te4,Hf5 Te4,['mp-12884']
3792,0.0,Y3GaCo3,Y3 Ga1 Co3,['mp-21491']
3793,0.0,Ge3Sb,Ge3 Sb1,"['mp-976111', 'mp-976122']"
3794,0.0,SmSb2,Sm1 Sb2,['mp-29647']
3795,0.0,Dy12C6I17,Dy12 C6 I17,['mp-567858']
3796,0.0,Ti2TcNi,Ti2 Tc1 Ni1,['mp-865878']
3797,0.0,TbP,Tb1 P1,['mp-645']
3798,0.0,Sr8Mn3N9,Sr8 Mn3 N9,['mp-567532']
3799,0.0,LiZr2Os,Li1 Zr2 Os1,['mp-865870']
3800,0.0,Mg3Al9FeSi5,Mg3 Al9 Fe1 Si5,['mp-7062']
3801,0.0,Co3H,Co3 H1,"['mp-1025425', 'mp-1183683']"
3802,0.0,Tb3Mn2C6,Tb3 Mn2 C6,['mp-28827']
3803,0.0,U11O5,U11 O5,['mp-673671']
3804,0.0,Te2Pd3Pb2,Te2 Pd3 Pb2,['mp-605028']
3805,0.0,Li4Fe3NiO8,Li4 Fe3 Ni1 O8,"['mp-754258', 'mp-755981', 'mp-769856']"
3806,0.0,Hf2MnIr,Hf2 Mn1 Ir1,['mp-865138']
3807,0.0,ZrW2,Zr1 W2,['mp-675']
3808,0.0,CuPd,Cu1 Pd1,"['mp-1225701', 'mp-1018029', 'mp-1225656']"
3809,0.0,YMg4Cu,Y1 Mg4 Cu1,['mp-570765']
3810,0.0,Ho3Ge5,Ho3 Ge5,['mp-542748']
3811,0.0,HfFe2,Hf1 Fe2,"['mp-333', 'mp-956096', 'mp-1191401']"
3812,0.0,LuAl2Pd5,Lu1 Al2 Pd5,['mp-1025564']
3813,0.0,Na19Zr11S30,Na19 Zr11 S30,"['mp-686139', 'mp-1221560']"
3814,0.0,Li2CuF6,Li2 Cu1 F6,['mp-759169']
3815,0.0,Sm4MgRh,Sm4 Mg1 Rh1,['mp-567957']
3816,0.0,Zn8Ag5,Zn8 Ag5,['mp-30361']
3817,0.0,Cu3Bi4I16,Cu3 Bi4 I16,['mp-675786']
3818,0.0,TbInAg2,Tb1 In1 Ag2,['mp-22382']
3819,0.0,W3O7F,W3 O7 F1,['mp-759488']
3820,0.0,YbAl3,Yb1 Al3,['mp-1259']
3821,0.0,Lu2CdAg,Lu2 Cd1 Ag1,['mp-973956']
3822,0.0,HoAlAu2,Ho1 Al1 Au2,['mp-982559']
3823,0.0,LaP3,La1 P3,['mp-973065']
3824,0.0,LaScSi,La1 Sc1 Si1,"['mp-1025119', 'mp-1024951']"
3825,0.0,U2Re2C3,U2 Re2 C3,"['mp-1078133', 'mp-1025230']"
3826,0.0,Na5Fe6(SiO3)12,Na5 Fe6 Si12 O36,['mp-766401']
3827,0.0,CrIrO4,Cr1 Ir1 O4,['mp-753633']