,Eg (eV),Comp,composition,mp_ids
3828,0.0,SmTh3,Sm1 Th3,['mp-978507']
3829,0.0,Ba2ReNiO6,Ba2 Re1 Ni1 O6,['mp-20286']
3830,0.0,Hf5Sn4,Hf5 Sn4,['mp-510691']
3831,0.0,Ti3Cu3O,Ti3 Cu3 O1,['mp-21457']
3832,0.0,La2Sn5Rh3,La2 Sn5 Rh3,['mp-30755']
3833,0.0,Mn2GaW,Mn2 Ga1 W1,['mp-976082']
3834,0.0,CaZn5,Ca1 Zn5,['mp-1734']
3835,0.0,Ag2P2PbO7,Ag2 P2 Pb1 O7,['mp-557644']
3836,0.0,RbHg3,Rb1 Hg3,['mp-975170']
3837,0.0,Li23Mn20As20,Li23 Mn20 As20,['mp-531949']
3838,0.0,UFe5Si3,U1 Fe5 Si3,['mp-580439']
3839,0.0,Li3Ni2(GeO4)3,Li3 Ni2 Ge3 O12,['mp-1013796']
3840,0.0,Nb5Ge3,Nb5 Ge3,"['mp-569891', 'mp-17910', 'mp-16842']"
3841,0.0,Fe6O7F5,Fe6 O7 F5,"['mp-755101', 'mp-756208', 'mp-755131', 'mp-755729', 'mp-756120', 'mp-780489', 'mp-756101', 'mp-755518', 'mp-755997', 'mp-755923', 'mp-779894', 'mp-755145', 'mp-756004', 'mp-755963', 'mp-779897', 'mp-755330']"
3842,0.0,HoB2Rh3,Ho1 B2 Rh3,['mp-1025027']
3844,0.0,Ti4O5,Ti4 O5,['mp-10734']
3845,0.0,Ni2Mo4N,Ni2 Mo4 N1,['mp-644742']
3846,0.0,PrIn,Pr1 In1,['mp-20023']
3847,0.0,YNi4B,Y1 Ni4 B1,['mp-7559']
3848,0.0,LiZn(Fe5O8)2,Li1 Zn1 Fe10 O16,['mp-756921']
3849,0.0,Co5Ge7,Co5 Ge7,['mp-22732']
3850,0.0,CeCo2As2,Ce1 Co2 As2,['mp-568182']
3851,0.0,Li2TiMn3O8,Li2 Ti1 Mn3 O8,"['mp-756866', 'mp-771575', 'mp-775166', 'mp-758872']"
3852,0.0,NdCo2Si2,Nd1 Co2 Si2,['mp-4228']
3853,0.0,Rb3Mn,Rb3 Mn1,"['mp-974970', 'mp-1186859']"
3854,0.0,Ba5Al2Ge7,Ba5 Al2 Ge7,['mp-570390']
3855,0.0,LiThAu2,Li1 Th1 Au2,['mp-865940']
3856,0.0,Sn5B2Rh6,Sn5 B2 Rh6,['mp-30060']
3857,0.0,Tl2CdTe4,Tl2 Cd1 Te4,"['mp-1025299', 'mp-1025337']"
3858,0.0,EuCsF3,Eu1 Cs1 F3,['mp-8396']
3859,0.0,YbNd3,Yb1 Nd3,['mp-982377']
3860,0.0,LiV3O4,Li1 V3 O4,"['mp-1298504', 'mp-1222538', 'mp-1288374', 'mp-1278550', 'mp-1294095', 'mp-1290104', 'mp-1299257', 'mp-1289770', 'mp-1275975', 'mp-1273137', 'mp-754378']"
3861,0.0,Ag3RuO4,Ag3 Ru1 O4,"['mp-510453', 'mp-1195464']"
3862,0.0,LiAlRh2,Li1 Al1 Rh2,['mp-862297']
3863,0.0,LaAl4,La1 Al4,"['mp-21109', 'mp-1104765']"
3864,0.0,PrMo3,Pr1 Mo3,['mp-978086']
3865,0.0,KOs2O6,K1 Os2 O6,"['mp-554461', 'mp-4788', 'mp-675028']"
3866,0.0,Rb5Tl3O,Rb5 Tl3 O1,['mp-556433']
3867,0.0,YCu3(WO3)4,Y1 Cu3 W4 O12,['mvc-2286']
3868,0.0,La5SmS8,La5 Sm1 S8,['mp-36088']
3869,0.0,Eu2Ga9Rh3,Eu2 Ga9 Rh3,['mp-645591']
3870,0.0,USi2Ni2,U1 Si2 Ni2,['mp-20596']
3871,0.0,RbMnTe2,Rb1 Mn1 Te2,['mp-10287']
3872,0.0,Nd5Ge4,Nd5 Ge4,['mp-172']
3873,0.0,CeSbO3,Ce1 Sb1 O3,['mp-38685']
3874,0.0,NdInAu,Nd1 In1 Au1,['mp-621362']
3875,0.0,MgAs4Rh6,Mg1 As4 Rh6,['mp-16043']
3876,0.0,GdInIr,Gd1 In1 Ir1,['mp-19745']
3877,0.0,GePt2,Ge1 Pt2,['mp-20061']
3878,0.0,LiGaAg2,Li1 Ga1 Ag2,['mp-865963']
3879,0.0,YbH3O3,Yb1 H3 O3,"['mp-626413', 'mp-626421']"
3880,0.0,ThPSe,Th1 P1 Se1,['mp-1019360']
3881,0.0,SmAg,Sm1 Ag1,['mp-2475']
3882,0.0,Cr10Sb3Te7,Cr10 Sb3 Te7,"['mp-1101642', 'mp-676935']"
3883,0.0,ZrAl5Ni2,Zr1 Al5 Ni2,['mp-30183']
3884,0.0,ZrPd3,Zr1 Pd3,"['mp-30842', 'mp-1017543']"
3885,0.0,Te2Au,Te2 Au1,"['mp-1662', 'mp-20123', 'mp-567525', 'mp-571547']"
3886,0.0,Sm6Br13,Sm6 Br13,['mp-672351']
3887,0.0,Ba5Ge3,Ba5 Ge3,['mp-21538']
3888,0.0,La2Si5Rh3,La2 Si5 Rh3,['mp-8620']
3889,0.0,Nd2IrPd,Nd2 Ir1 Pd1,['mp-864622']
3890,0.0,Ag7NO11,Ag7 N1 O11,"['mp-34787', 'mp-37695']"
3891,0.0,V6PbO11,V6 Pb1 O11,"['mp-619128', 'mp-22371']"
3892,0.0,Nd3Ge5,Nd3 Ge5,['mp-2015']
3893,0.0,ReIr3,Re1 Ir3,"['mp-1219535', 'mp-867792']"
3894,0.0,ZrNiSn,Zr1 Ni1 Sn1,"['mp-30806', 'mp-568470', 'mp-924129']"
3895,0.0,MnSbPd,Mn1 Sb1 Pd1,['mp-4142']
3896,0.0,Ti13S24,Ti13 S24,['mp-684731']
3897,0.0,Sm2CuAs3O,Sm2 Cu1 As3 O1,['mp-1005792']
3898,0.0,FePd2Se2,Fe1 Pd2 Se2,['mp-12466']
3899,0.0,Ca6Cu2Sn7,Ca6 Cu2 Sn7,['mp-579544']
3900,0.0,Co3W,Co3 W1,"['mp-1008274', 'mp-2157']"
3901,0.0,YbAgGe,Yb1 Ag1 Ge1,['mp-9776']
3902,0.0,YSi2Ru2,Y1 Si2 Ru2,['mp-568673']
3903,0.0,LaIn,La1 In1,['mp-20582']
3904,0.0,Re3F,Re3 F1,['mp-974458']
3905,0.0,NdAgPb,Nd1 Ag1 Pb1,['mp-20880']
3906,0.0,Sr2ZnReO6,Sr2 Zn1 Re1 O6,"['mp-548691', 'mp-559614']"
3907,0.0,Mn3Cr3(TeO8)2,Mn3 Cr3 Te2 O16,['mp-772061']
3908,0.0,Sc3Re2Si4,Sc3 Re2 Si4,['mp-31027']
3909,0.0,GdNi2Ge2,Gd1 Ni2 Ge2,['mp-646399']
3910,0.0,CaVO2,Ca1 V1 O2,"['mvc-5170', 'mp-1244621', 'mvc-888']"
3911,0.0,ICl2,I1 Cl2,['mp-864616']
3912,0.0,Ba3Te,Ba3 Te1,"['mp-984765', 'mp-1183360']"
3913,0.0,NdSi2Ir2,Nd1 Si2 Ir2,"['mp-1079449', 'mp-567130', 'mp-1069191']"
3914,0.0,MnTcOs,Mn1 Tc1 Os1,['mp-631280']
3915,0.0,B5Mo2,B5 Mo2,['mp-7229']
3916,0.0,Zn3Cu,Zn3 Cu1,"['mp-1215483', 'mp-972042']"
3917,0.0,Yb3Ti3O14,Yb3 Ti3 O14,['mp-676370']
3918,0.0,Ni3Ge,Ni3 Ge1,['mp-21008']
3919,0.0,YMgGa,Y1 Mg1 Ga1,['mp-5590']
3920,0.0,RbU2SbS8,Rb1 U2 Sb1 S8,['mp-559405']
3921,0.0,ScSi3Ni,Sc1 Si3 Ni1,['mp-3129']
3922,0.0,SiBi3O7,Si1 Bi3 O7,['mp-753860']
3923,0.0,Al2Cu3Se6,Al2 Cu3 Se6,['mp-1257684']
3924,0.0,Sm2Pd2Pb,Sm2 Pd2 Pb1,['mp-672272']
3925,0.0,CaZn3,Ca1 Zn3,"['mp-1094980', 'mp-1039262', 'mp-1039032', 'mp-680531', 'mp-1094784']"
3926,0.0,U2AlCo3,U2 Al1 Co3,['mp-30176']
3927,0.0,LiSn4Ir,Li1 Sn4 Ir1,['mp-21894']
3928,0.0,PmSnRh2,Pm1 Sn1 Rh2,['mp-862961']
3929,0.0,HfSiPt,Hf1 Si1 Pt1,"['mp-10456', 'mp-961670']"
3930,0.0,YHg2,Y1 Hg2,['mp-30725']
3931,0.0,VCu3(PO4)4,V1 Cu3 P4 O16,['mp-755952']
3932,0.0,Ag9Ge2IO8,Ag9 Ge2 I1 O8,['mp-561034']
3933,0.0,U2Al3C4,U2 Al3 C4,['mp-8894']
3934,0.0,Li2Ni2SbO6,Li2 Ni2 Sb1 O6,"['mp-1639439', 'mp-771754']"
3935,0.0,Th2In,Th2 In1,['mp-21428']
3936,0.0,Ti2NiH,Ti2 Ni1 H1,['mp-644259']
3937,0.0,Te2MoWS2,Te2 Mo1 W1 S2,"['mp-1080156', 'mp-1029072', 'mp-1027341', 'mp-1030391', 'mp-1027615', 'mp-1030398', 'mp-1027034', 'mp-1028975', 'mp-1029950', 'mp-1027375', 'mp-1029946', 'mp-1023932', 'mp-1023963', 'mp-1029115', 'mp-1027110', 'mp-1026969', 'mp-1030309', 'mp-1027058', 'mp-1030286', 'mp-1028483', 'mp-1027486', 'mp-1030196']"
3938,0.0,SrAl,Sr1 Al1,['mp-27233']
3939,0.0,Ca3Sn2S7,Ca3 Sn2 S7,"['mp-866849', 'mp-866493', 'mp-866475', 'mp-866827', 'mp-866869', 'mp-866873']"
3940,0.0,Sc2GaIr,Sc2 Ga1 Ir1,['mp-972899']
3941,0.0,ThAl,Th1 Al1,['mp-178']
3942,0.0,Nd3Ni13B2,Nd3 Ni13 B2,['mp-3071']
3943,0.0,Cu10Sb3,Cu10 Sb3,['mp-2004']
3944,0.0,Sr8Fe3N8,Sr8 Fe3 N8,['mp-573523']
3945,0.0,Re3P4,Re3 P4,['mp-1474']
3946,0.0,TiPO4,Ti1 P1 O4,"['mp-5839', 'mp-25435', 'mp-779587']"
3947,0.0,SrCd,Sr1 Cd1,['mp-30496']
3948,0.0,NbOsPb,Nb1 Os1 Pb1,['mp-631356']
3949,0.0,ZrGeRu,Zr1 Ge1 Ru1,['mp-637736']
3950,0.0,Y2Ru2O7,Y2 Ru2 O7,['mp-20643']
3951,0.0,La2Rh7,La2 Rh7,"['mp-1190346', 'mp-568375']"
3952,0.0,Hf4Al3,Hf4 Al3,['mp-1025223']
3953,0.0,Dy2TlCd,Dy2 Tl1 Cd1,['mp-866005']
3954,0.0,SrNi5As3,Sr1 Ni5 As3,['mp-17396']
3955,0.0,Cr2SbTe,Cr2 Sb1 Te1,['mp-675700']
3956,0.0,DyNiSn,Dy1 Ni1 Sn1,['mp-510152']
3957,0.0,Zn2SnN2,Zn2 Sn1 N2,['mvc-15382']
3958,0.0,TiAlAu2,Ti1 Al1 Au2,"['mp-16482', 'mp-1217022']"
3959,0.0,Dy5Sn3,Dy5 Sn3,['mp-30623']
3960,0.0,Yb2MgS4,Yb2 Mg1 S4,"['mp-1232217', 'mp-1100853', 'mp-8272']"
3961,0.0,Mg2RhAu,Mg2 Rh1 Au1,['mp-864965']
3962,0.0,CeSi2Pt,Ce1 Si2 Pt1,['mp-3284']
3963,0.0,Ce2Ti2O7,Ce2 Ti2 O7,['mp-755065']
3964,0.0,MgSc,Mg1 Sc1,"['mp-1185947', 'mp-1174']"
3965,0.0,Mg2AgIr,Mg2 Ag1 Ir1,['mp-864976']
3966,0.0,ReBiO3,Re1 Bi1 O3,['mp-974581']
3967,0.0,AgCNO,Ag1 C1 N1 O1,"['mp-561891', 'mp-6781', 'mp-6070', 'mp-6814', 'mp-545730']"
3968,0.0,Al13Ru4,Al13 Ru4,['mp-17880']
3969,0.0,SiTe2Os,Si1 Te2 Os1,['mp-631362']
3970,0.0,HoMg2,Ho1 Mg2,"['mp-1184881', 'mp-1184860', 'mp-13499']"
3971,0.0,UAl4,U1 Al4,['mp-574122']
3972,0.0,SmCoC2,Sm1 Co1 C2,"['mp-999190', 'mp-1079121']"
3973,0.0,Ag9Pb4O12,Ag9 Pb4 O12,['mp-675327']
3974,0.0,NaZr2TiF11,Na1 Zr2 Ti1 F11,['mp-15056']
3975,0.0,ScRh,Sc1 Rh1,['mp-1780']
3976,0.0,HoSi2Pt2,Ho1 Si2 Pt2,"['mp-571665', 'mp-16377']"
3977,0.0,Li3VOF5,Li3 V1 O1 F5,"['mp-757350', 'mp-765358', 'mp-760816']"
3978,0.0,Ti2ZnS4,Ti2 Zn1 S4,"['mvc-11251', 'mvc-16628']"
3979,0.0,KV6O11,K1 V6 O11,"['mp-18390', 'mp-17353']"
3980,0.0,ErMg2,Er1 Mg2,"['mp-1184269', 'mp-30607']"
3981,0.0,CsAs2Ru2,Cs1 As2 Ru2,['mp-570837']
3982,0.0,In2Pt,In2 Pt1,['mp-22682']
3983,0.0,Rh3Pb,Rh3 Pb1,['mp-974368']
3984,0.0,Ba3CrS5,Ba3 Cr1 S5,['mp-30903']
3985,0.0,Si2SbO6,Si2 Sb1 O6,"['mvc-4921', 'mp-1248911']"
3986,0.0,NdAu3,Nd1 Au3,"['mp-975073', 'mp-866076']"
3987,0.0,Li3Mo2P5O18,Li3 Mo2 P5 O18,['mp-585177']
3988,0.0,Tl16O15F17,Tl16 O15 F17,['mp-758418']
3989,0.0,DySi2Cu2,Dy1 Si2 Cu2,['mp-2917']
3990,0.0,TbBa2IrO6,Tb1 Ba2 Ir1 O6,['mp-12410']
3991,0.0,Cu9O13,Cu9 O13,['mvc-1956']
3992,0.0,Ni2PO5,Ni2 P1 O5,"['mp-769619', 'mp-755058']"
3993,0.0,SrV13O18,Sr1 V13 O18,['mp-510250']
3994,0.0,NaNi2O3,Na1 Ni2 O3,"['mp-753386', 'mp-1303200', 'mp-1307153', 'mp-759286']"
3995,0.0,Th2CrN3,Th2 Cr1 N3,['mp-12584']
3996,0.0,Sc5Bi3,Sc5 Bi3,['mp-607138']
3997,0.0,Hf3P3Pd4,Hf3 P3 Pd4,['mp-29811']
3998,0.0,Mg17Al11Pd,Mg17 Al11 Pd1,['mp-865352']
3999,0.0,EuZn,Eu1 Zn1,['mp-1261']
4000,0.0,ReRuOs,Re1 Ru1 Os1,['mp-631354']
4001,0.0,Y2Ge5Ir3,Y2 Ge5 Ir3,['mp-541609']
4002,0.0,Zr3Ir,Zr3 Ir1,['mp-30748']
4004,0.0,Sm2Fe17,Sm2 Fe17,['mp-1426']
4005,0.0,Ni2Mo3N,Ni2 Mo3 N1,['mp-4091']
4006,0.0,Li5Fe2Ni3O10,Li5 Fe2 Ni3 O10,['mp-755824']
4007,0.0,NaSi2Pd3,Na1 Si2 Pd3,['mp-4276']
4008,0.0,Y3Ge4,Y3 Ge4,['mp-17381']
4009,0.0,RbCd13,Rb1 Cd13,['mp-1040']
4010,0.0,Au3S,Au3 S1,['mp-984597']
4011,0.0,Mg9CuO10,Mg9 Cu1 O10,['mp-753285']
4012,0.0,BaAlCu4O7,Ba1 Al1 Cu4 O7,['mp-1262343']
4013,0.0,Ga5Pd13,Ga5 Pd13,['mp-31485']
4014,0.0,CeTl3,Ce1 Tl3,['mp-20603']
4015,0.0,Ni3S4,Ni3 S4,['mp-1050']
4016,0.0,Sr2MgReO6,Sr2 Mg1 Re1 O6,"['mp-1078868', 'mp-11734']"
4017,0.0,NaLu(Pd3O4)2,Na1 Lu1 Pd6 O8,['mp-6533']
4018,0.0,Na2Tl,Na2 Tl1,['mp-30795']
4019,0.0,Tc3Pd,Tc3 Pd1,"['mp-1217414', 'mp-1217424', 'mp-861610']"
4020,0.0,Ce3Ta(ClO2)3,Ce3 Ta1 Cl3 O6,['mp-558609']
4021,0.0,CrSiCu2,Cr1 Si1 Cu2,['mp-1007924']
4022,0.0,La3B2N4,La3 B2 N4,['mp-569935']
4023,0.0,Nd4MgRu,Nd4 Mg1 Ru1,['mp-605835']
4024,0.0,Hf5CuPb3,Hf5 Cu1 Pb3,['mp-607409']
4025,0.0,Lu2Mn12P7,Lu2 Mn12 P7,['mp-865350']
4026,0.0,DyBiPt,Dy1 Bi1 Pt1,['mp-30453']
4027,0.0,CrNiAs,Cr1 Ni1 As1,['mp-4989']
4028,0.0,ZrMo3,Zr1 Mo3,['mp-30790']
4029,0.0,Cu4Pd,Cu4 Pd1,['mp-30594']
4030,0.0,Li2Ga,Li2 Ga1,['mp-29210']
4031,0.0,Li2MnO2F,Li2 Mn1 O2 F1,"['mp-759973', 'mp-753913', 'mp-753659', 'mp-850216', 'mp-753961', 'mp-1292668', 'mp-753733', 'mp-752464', 'mp-753364', 'mp-1306614', 'mp-753685', 'mp-753906', 'mp-759509', 'mp-753900', 'mp-756688', 'mp-1305321', 'mp-1318725', 'mp-765951', 'mp-1291753', 'mp-753352', 'mp-1574529', 'mp-1295085', 'mp-1643079', 'mp-760112', 'mp-753359']"
4032,0.0,InPt,In1 Pt1,"['mp-1223656', 'mp-510438']"
4033,0.0,Na2In5Au6,Na2 In5 Au6,['mp-607437']
4034,0.0,Sm2AlCd,Sm2 Al1 Cd1,['mp-978519']
4035,0.0,TlSn,Tl1 Sn1,"['mp-1187560', 'mp-2556']"
4036,0.0,LuC2,Lu1 C2,['mp-8371']
4037,0.0,TlCoBi,Tl1 Co1 Bi1,['mp-631546']
4038,0.0,UAl3,U1 Al3,"['mp-1187755', 'mp-1723']"
4039,0.0,Er2Ga9Co3,Er2 Ga9 Co3,['mp-866685']
4040,0.0,Nb3Ru,Nb3 Ru1,['mp-977434']
4041,0.0,FeP,Fe1 P1,['mp-1005']
4042,0.0,La2Pr2O7,La2 Pr2 O7,['mp-755355']
4043,0.0,V2TcRu,V2 Tc1 Ru1,['mp-865501']
4044,0.0,NdRe4Si2,Nd1 Re4 Si2,['mp-505513']
4045,0.0,CaAg2Ge2,Ca1 Ag2 Ge2,['mp-7878']
4046,0.0,HfCo2Si2,Hf1 Co2 Si2,['mp-571367']
4047,0.0,LaSi2Ru,La1 Si2 Ru1,['mp-28795']
4048,0.0,Rb3Sm,Rb3 Sm1,"['mp-974816', 'mp-978034', 'mp-1186874']"
4049,0.0,Si2Ni6B,Si2 Ni6 B1,['mp-4720']
4050,0.0,LiTlPd2,Li1 Tl1 Pd2,['mp-12716']
4051,0.0,Ga2NiS4,Ga2 Ni1 S4,['mp-6959']
4052,0.0,CsTiCl3,Cs1 Ti1 Cl3,['mp-28283']
4053,0.0,ZrNi4P2,Zr1 Ni4 P2,['mp-505598']
4054,0.0,Na2Cr7O14,Na2 Cr7 O14,['mp-754789']
4055,0.0,K3UF3,K3 U1 F3,['mp-675943']
4056,0.0,Cu23Sb8S26,Cu23 Sb8 S26,['mp-686109']
4057,0.0,MnCu2Sn,Mn1 Cu2 Sn1,['mp-22221']
4058,0.0,Ti2TcPd,Ti2 Tc1 Pd1,['mp-865931']
4059,0.0,Na2SO4,Na2 S1 O4,"['mp-505274', 'mp-3143', 'mp-22424', 'mp-1173730', 'mp-4770']"
4060,0.0,Al6Ru,Al6 Ru1,['mp-16529']
4061,0.0,DyIr2,Dy1 Ir2,['mp-1358']
4062,0.0,Nb3Bi,Nb3 Bi1,"['mp-1220638', 'mp-568014']"
4063,0.0,Mn3Al10,Mn3 Al10,['mp-16511']
4064,0.0,ScCu2,Sc1 Cu2,['mp-1018149']
4065,0.0,YbGa8Co2,Yb1 Ga8 Co2,['mp-21795']
4066,0.0,YbSi2Ag2,Yb1 Si2 Ag2,['mp-10668']
4067,0.0,CaTi4O8,Ca1 Ti4 O8,"['mvc-14915', 'mvc-12176']"
4068,0.0,Na5Cu7O13,Na5 Cu7 O13,['mp-752584']
4069,0.0,TbFe4P12,Tb1 Fe4 P12,['mp-21041']
4070,0.0,NdSb,Nd1 Sb1,"['mp-1213', 'mp-1586']"
4071,0.0,Sm4U4O17,Sm4 U4 O17,['mp-752785']
4072,0.0,Ba3CaRu2O9,Ba3 Ca1 Ru2 O9,"['mp-12832', 'mp-6443', 'mp-541485']"
4073,0.0,LiSnAu,Li1 Sn1 Au1,['mp-11977']
4074,0.0,DyZnRh2,Dy1 Zn1 Rh2,['mp-865257']
4075,0.0,CoAsRh,Co1 As1 Rh1,['mp-22546']
4076,0.0,Sm2AgRu,Sm2 Ag1 Ru1,['mp-867869']
4077,0.0,FeAg3(CN)6,Fe1 Ag3 C6 N6,['mp-568663']
4078,0.0,Bi2O5,Bi2 O5,"['mvc-13490', 'mvc-7514', 'mvc-8880', 'mvc-8471', 'mvc-4554']"
4079,0.0,FeAs2O7,Fe1 As2 O7,"['mp-25260', 'mvc-8010']"
4080,0.0,Ce2SiSeO4,Ce2 Si1 Se1 O4,['mp-542664']
4081,0.0,Hf3Ni4Ge4,Hf3 Ni4 Ge4,['mp-10076']
4082,0.0,Na3In2Au,Na3 In2 Au1,['mp-542680']
4083,0.0,La2In,La2 In1,['mp-20760']
4084,0.0,P2H12N7Cl,P2 H12 N7 Cl1,['mp-758356']
4085,0.0,Nd3Ge2Ru2,Nd3 Ge2 Ru2,['mp-630836']
4086,0.0,Ho4Ga16Co3,Ho4 Ga16 Co3,['mp-978039']
4087,0.0,Ta22Cu3S36,Ta22 Cu3 S36,['mp-686369']
4088,0.0,Ti3PO7,Ti3 P1 O7,['mp-867750']
4089,0.0,Te3MoWS,Te3 Mo1 W1 S1,"['mp-1030419', 'mp-1028985', 'mp-1029952', 'mp-1029322', 'mp-1028643', 'mp-1030353', 'mp-1030195', 'mp-1027033', 'mp-1026981', 'mp-1029112', 'mp-1027278']"
4090,0.0,TaF3,Ta1 F3,['mp-8338']
4091,0.0,YbSn2Pd,Yb1 Sn2 Pd1,['mp-16641']
4092,0.0,LiLu2Ru,Li1 Lu2 Ru1,['mp-977393']
4093,0.0,Nb4Co2PdSe12,Nb4 Co2 Pd1 Se12,['mp-624253']
4094,0.0,Mg3Mn2Al18,Mg3 Mn2 Al18,['mp-684027']
4095,0.0,Pr2Ir2O7,Pr2 Ir2 O7,['mp-558448']
4096,0.0,Li8PrO6,Li8 Pr1 O6,['mp-8424']
4097,0.0,DyInAu,Dy1 In1 Au1,['mp-22177']
4098,0.0,Yb2SrS4,Yb2 Sr1 S4,"['mp-675445', 'mp-1194208']"
4099,0.0,Sc4Ge6Rh7,Sc4 Ge6 Rh7,['mp-541558']
4100,0.0,Ba2LiFe2N3,Ba2 Li1 Fe2 N3,['mp-8924']
4101,0.0,SmCrGe3,Sm1 Cr1 Ge3,['mp-13009']
4102,0.0,ZrRh,Zr1 Rh1,"['mp-669917', 'mp-1215257', 'mp-567181', 'mp-2808', 'mp-1017545']"
4103,0.0,U3Se4,U3 Se4,['mp-20328']
4104,0.0,PrFeGe2,Pr1 Fe1 Ge2,['mp-978101']
4105,0.0,LiTiSiO4,Li1 Ti1 Si1 O4,"['mp-1176604', 'mp-753305', 'mp-1176566', 'mp-753580', 'mp-753511', 'mp-753349']"
4106,0.0,TbPt,Tb1 Pt1,"['mp-7425', 'mp-1079305']"
4107,0.0,Tm2In,Tm2 In1,['mp-21486']
4108,0.0,YbRh2,Yb1 Rh2,['mp-2235']
4109,0.0,Sm3Al,Sm3 Al1,"['mp-979266', 'mp-11222']"
4110,0.0,TmAu,Tm1 Au1,"['mp-447', 'mp-1017507']"
4111,0.0,Sc2Al3Ru,Sc2 Al3 Ru1,['mp-10911']
4112,0.0,Ce5Si3,Ce5 Si3,['mp-570175']
4113,0.0,Al9Ir2,Al9 Ir2,['mp-12003']
4114,0.0,Pm2LiGa,Pm2 Li1 Ga1,['mp-861947']
4115,0.0,SmBPd3,Sm1 B1 Pd3,['mp-3428']
4116,0.0,Mg5Ti13O30,Mg5 Ti13 O30,['mp-759796']
4117,0.0,ZrSiTe,Zr1 Si1 Te1,['mp-19917']
4118,0.0,HoNiGe,Ho1 Ni1 Ge1,"['mp-1223980', 'mp-542171']"
4119,0.0,LuSiIr,Lu1 Si1 Ir1,['mp-22440']
4120,0.0,KRuO4,K1 Ru1 O4,['mp-14005']
4121,0.0,KAgF3,K1 Ag1 F3,['mp-13819']
4122,0.0,Lu2TlCd,Lu2 Tl1 Cd1,['mp-866133']
4123,0.0,MgInAg2,Mg1 In1 Ag2,['mp-973088']
4124,0.0,CuSeO3,Cu1 Se1 O3,"['mp-554440', 'mp-22414', 'mp-560049', 'mp-22688']"
4125,0.0,BaMnO3,Ba1 Mn1 O3,"['mp-675227', 'mp-1016852', 'mp-35078', 'mp-19156', 'mp-1205336', 'mp-757501', 'mp-557535', 'mp-19267', 'mp-18840']"
4126,0.0,ReSn3,Re1 Sn3,['mp-974545']
4127,0.0,Cu25Se26,Cu25 Se26,['mp-684923']
4128,0.0,Ag2BBr,Ag2 B1 Br1,['mp-631581']
4129,0.0,HoCu4Pd,Ho1 Cu4 Pd1,['mp-1025134']
4130,0.0,CsIrO3,Cs1 Ir1 O3,['mp-984356']
4131,0.0,Cs2Mo15S19,Cs2 Mo15 S19,['mp-554708']
4132,0.0,Zr2CuS4,Zr2 Cu1 S4,['mp-14025']
4133,0.0,Mn5Ge2,Mn5 Ge2,"['mp-632686', 'mp-704981']"
4134,0.0,Fe2O2F3,Fe2 O2 F3,['mp-755377']
4135,0.0,La2Ni5B4,La2 Ni5 B4,['mp-3471']
4136,0.0,LaIn2Ir,La1 In2 Ir1,['mp-22017']
4137,0.0,Cs5Mo21Se23,Cs5 Mo21 Se23,['mp-581739']
4138,0.0,Ti4ZnO8,Ti4 Zn1 O8,"['mvc-12157', 'mvc-12444', 'mvc-14907']"
4139,0.0,Yb5Au4,Yb5 Au4,['mp-570527']
4140,0.0,Tl5Te3,Tl5 Te3,"['mp-174', 'mp-1796']"
4141,0.0,K2Mn3S4,K2 Mn3 S4,['mp-29861']
4142,0.0,Sb2Te,Sb2 Te1,"['mp-1219477', 'mp-6997']"
4143,0.0,ZnSb3,Zn1 Sb3,['mp-971763']
4144,0.0,GaFeNi2,Ga1 Fe1 Ni2,"['mp-1018074', 'mp-1065359']"
4145,0.0,YDyAg2,Y1 Dy1 Ag2,['mp-971924']
4146,0.0,TiFeH2,Ti1 Fe1 H2,"['mp-1078838', 'mp-643945', 'mp-1079106']"
4147,0.0,HoCdCu4,Ho1 Cd1 Cu4,['mp-12007']
4148,0.0,LiCa2Mg,Li1 Ca2 Mg1,['mp-975368']
4149,0.0,CaTiO2,Ca1 Ti1 O2,"['mvc-15128', 'mvc-15407', 'mp-1244561', 'mvc-16494', 'mvc-12132']"
4150,0.0,NaLi3,Na1 Li3,"['mp-1186151', 'mp-973316']"
4151,0.0,VTc,V1 Tc1,['mp-2540']
4152,0.0,LiY(CuP)2,Li1 Y1 Cu2 P2,['mp-1018791']
4153,0.0,LiMnP2O7,Li1 Mn1 P2 O7,"['mp-776412', 'mp-849328', 'mp-849351', 'mp-25955', 'mp-849723', 'mp-782650', 'mp-540193', 'mp-31924', 'mp-775933', 'mp-849674', 'mp-26555', 'mp-780706', 'mp-31960', 'mp-759077', 'mp-758697', 'mp-27031', 'mp-1176822', 'mp-32022', 'mp-26179', 'mp-1176663', 'mp-849721', 'mp-849605', 'mp-540415', 'mp-849692', 'mp-705357', 'mp-540033', 'mp-540188', 'mp-26397', 'mp-776395', 'mp-1176713', 'mp-26339', 'mp-697744', 'mp-758076', 'mp-1176685', 'mp-753078', 'mp-776469', 'mp-1101530', 'mp-26379', 'mp-26981', 'mp-1176710']"
4154,0.0,U5Ge3,U5 Ge3,['mp-622345']
4155,0.0,YZn5,Y1 Zn5,"['mp-30885', 'mp-1202791']"
4156,0.0,Li4FeNi3O8,Li4 Fe1 Ni3 O8,['mp-765712']
4157,0.0,NdMnSbO,Nd1 Mn1 Sb1 O1,['mp-18755']
4158,0.0,TiFe2Sb,Ti1 Fe2 Sb1,['mp-998970']
4159,0.0,EuMg2Bi2,Eu1 Mg2 Bi2,['mp-1006146']
4160,0.0,KCuPO4,K1 Cu1 P1 O4,"['mp-505349', 'mp-649472']"
4161,0.0,PrLuIn2,Pr1 Lu1 In2,['mp-975932']
4162,0.0,Rb2FeI4,Rb2 Fe1 I4,"['mp-581600', 'mp-568928']"
4163,0.0,Ba3ZrRu2O9,Ba3 Zr1 Ru2 O9,['mp-561170']
4164,0.0,Gd3Al2Ni6,Gd3 Al2 Ni6,['mp-580327']
4165,0.0,LaAl12O19,La1 Al12 O19,"['mp-765688', 'mp-1097044']"
4166,0.0,FePd3,Fe1 Pd3,"['mp-21845', 'mp-1224883']"
4167,0.0,Na2Ti2Sb2O,Na2 Ti2 Sb2 O1,['mp-6328']
4168,0.0,Ho3Hg,Ho3 Hg1,['mp-975256']
4169,0.0,ErCu2Ge2,Er1 Cu2 Ge2,['mp-5083']
4170,0.0,CeBC,Ce1 B1 C1,['mp-639306']
4171,0.0,V12P7,V12 P7,['mp-684675']
4172,0.0,BSe2Cl,B1 Se2 Cl1,['mp-631529']
4173,0.0,LaV,La1 V1,['mp-973891']
4174,0.0,FeSn,Fe1 Sn1,"['mp-21260', 'mp-20512']"
4175,0.0,Nb3Te,Nb3 Te1,['mp-570751']
4176,0.0,Lu7Ni2Te2,Lu7 Ni2 Te2,['mp-11752']
4177,0.0,MgSbF6,Mg1 Sb1 F6,['mvc-15707']
4178,0.0,Li2Ni3O6,Li2 Ni3 O6,"['mp-758726', 'mp-758095', 'mp-773252', 'mp-758831', 'mp-762391', 'mp-753296']"
4179,0.0,CrNiP2O9,Cr1 Ni1 P2 O9,['mvc-8928']
4180,0.0,HoGe,Ho1 Ge1,['mp-16342']
4181,0.0,AgAu2S2,Ag1 Au2 S2,['mp-35835']
4182,0.0,ThRu3C,Th1 Ru3 C1,['mp-22394']
4183,0.0,Sn5B2Ir6,Sn5 B2 Ir6,['mp-28998']
4184,0.0,Na2VCuF7,Na2 V1 Cu1 F7,['mp-541773']
4185,0.0,NaTi5Se8,Na1 Ti5 Se8,['mp-977244']
4186,0.0,Yb3Tc,Yb3 Tc1,"['mp-979954', 'mp-979938']"
4187,0.0,Cr2GeC,Cr2 Ge1 C1,['mp-19821']
4188,0.0,HoTiGe,Ho1 Ti1 Ge1,['mp-22108']
4189,0.0,Ca3Au4,Ca3 Au4,['mp-12699']
4190,0.0,ZnIrO3,Zn1 Ir1 O3,['mp-1016926']
4191,0.0,MnP2,Mn1 P2,['mp-754064']
4192,0.0,YErRh2,Y1 Er1 Rh2,['mp-980645']
4193,0.0,RbC8,Rb1 C8,['mp-568643']
4194,0.0,Pm2PtAu,Pm2 Pt1 Au1,['mp-982772']
4195,0.0,LiMnO2,Li1 Mn1 O2,"['mp-1294817', 'mp-1307452', 'mp-1316268', 'mp-756747', 'mp-754656', 'mp-1004373', 'mp-25542', 'mp-754881', 'mp-18767', 'mp-531604', 'mp-1002572', 'mp-1318103', 'mp-756475', 'mp-1303262', 'mp-755562', 'mp-779788', 'mp-675370', 'mp-556415', 'mp-35929', 'mp-37620', 'mp-25373', 'mp-756516']"
4196,0.0,Dy12Co7,Dy12 Co7,['mp-573622']
4197,0.0,Sc5Pb3,Sc5 Pb3,['mp-510209']
4198,0.0,LiCu2Ge,Li1 Cu2 Ge1,['mp-567097']
4199,0.0,Cu3Se2(ClO3)2,Cu3 Se2 Cl2 O6,"['mp-557946', 'mp-557136']"
4200,0.0,SmHoZn2,Sm1 Ho1 Zn2,['mp-978537']
4201,0.0,LiCu3O3,Li1 Cu3 O3,"['mp-765613', 'mp-1147702', 'mp-753848', 'mp-1222774']"
4202,0.0,BaAs2Pd2,Ba1 As2 Pd2,"['mp-6962', 'mp-571350', 'mp-8237']"
4203,0.0,CeInIr,Ce1 In1 Ir1,['mp-20449']
4204,0.0,PW5O17,P1 W5 O17,"['mp-29926', 'mp-1203346']"
4205,0.0,Dy2CuOs,Dy2 Cu1 Os1,['mp-864959']
4206,0.0,Y2C3,Y2 C3,['mp-1695']
4207,0.0,NaZrCuTe3,Na1 Zr1 Cu1 Te3,['mp-505173']
4208,0.0,HoMgAu2,Ho1 Mg1 Au2,['mp-864653']
4209,0.0,La2B4Rh5,La2 B4 Rh5,['mp-14696']
4210,0.0,CuCN2,Cu1 C1 N2,['mp-3421']
4211,0.0,La4In5S13,La4 In5 S13,['mp-21571']
4212,0.0,YB2C,Y1 B2 C1,['mp-9880']
4213,0.0,Na2LiTa,Na2 Li1 Ta1,['mp-631339']
4214,0.0,CaNi5,Ca1 Ni5,"['mp-774', 'mp-1101884']"
4215,0.0,Yb23Mg4Cu7,Yb23 Mg4 Cu7,['mp-645504']
4216,0.0,TbH2,Tb1 H2,['mp-24724']
4217,0.0,ScCrO4,Sc1 Cr1 O4,"['mp-1101382', 'mp-754160']"
4218,0.0,Dy3MnB7,Dy3 Mn1 B7,['mp-14356']