,Eg (eV),Comp,composition,mp_ids
4219,0.0,Li3Ni3(PO4)4,Li3 Ni3 P4 O16,"['mp-26263', 'mp-504236', 'mp-26525']"
4220,0.0,Re2PbO6,Re2 Pb1 O6,['mp-558655']
4221,0.0,Gd6Ta4Al43,Gd6 Ta4 Al43,['mp-680956']
4222,0.0,Tb3FeB7,Tb3 Fe1 B7,['mp-972235']
4223,0.0,Ce3Al,Ce3 Al1,"['mp-21393', 'mp-570987', 'mp-2413']"
4224,0.0,CaCdPd2,Ca1 Cd1 Pd2,['mp-866279']
4225,0.0,VB2,V1 B2,['mp-1491']
4226,0.0,CeIr5,Ce1 Ir5,"['mp-1077075', 'mp-30507']"
4227,0.0,EuAs2Pd2,Eu1 As2 Pd2,"['mp-1069444', 'mp-672213']"
4228,0.0,Sc2GaAg,Sc2 Ga1 Ag1,['mp-862339']
4229,0.0,Zn3Cu10(TeO6)6,Zn3 Cu10 Te6 O36,['mvc-15145']
4230,0.0,Nd2Ge5Rh3,Nd2 Ge5 Rh3,"['mp-1189581', 'mp-18678']"
4231,0.0,PmMgCd2,Pm1 Mg1 Cd2,['mp-862939']
4232,0.0,UPt3,U1 Pt3,['mp-30855']
4233,0.0,Zr6Sb2Pt,Zr6 Sb2 Pt1,['mp-12972']
4234,0.0,YCr2Si2,Y1 Cr2 Si2,['mp-4740']
4235,0.0,Y3Si3Pd2,Y3 Si3 Pd2,['mp-14244']
4236,0.0,Er5Bi3,Er5 Bi3,"['mp-1201625', 'mp-31466']"
4237,0.0,Sc2TlTc,Sc2 Tl1 Tc1,['mp-972861']
4238,0.0,MnAlAu2,Mn1 Al1 Au2,['mp-5491']
4239,0.0,Ho2Co17,Ho2 Co17,['mp-1023']
4240,0.0,TbSb2,Tb1 Sb2,"['mp-1095657', 'mp-1018127']"
4241,0.0,Re3As7,Re3 As7,['mp-2473']
4242,0.0,ScCdAg2,Sc1 Cd1 Ag2,['mp-867127']
4243,0.0,TePd,Te1 Pd1,['mp-564']
4244,0.0,MgInPd2,Mg1 In1 Pd2,['mp-865043']
4245,0.0,ZrRu3C,Zr1 Ru3 C1,['mp-10706']
4246,0.0,YAlPd,Y1 Al1 Pd1,"['mp-1095464', 'mp-12961']"
4247,0.0,Mg10B16Ir19,Mg10 B16 Ir19,['mp-568548']
4248,0.0,Hf7P4,Hf7 P4,['mp-18622']
4249,0.0,SbRh3,Sb1 Rh3,['mp-973342']
4250,0.0,Ba4Nb14O23,Ba4 Nb14 O23,['mp-4564']
4251,0.0,PdPb2,Pd1 Pb2,['mp-20599']
4252,0.0,MnBe2Co,Mn1 Be2 Co1,['mp-978261']
4253,0.0,Li5Bi4O12,Li5 Bi4 O12,['mp-867727']
4254,0.0,NdAl4Ge2Au,Nd1 Al4 Ge2 Au1,['mp-12018']
4255,0.0,LuGaRh2,Lu1 Ga1 Rh2,['mp-865609']
4256,0.0,LiEr2Ga,Li1 Er2 Ga1,['mp-976793']
4257,0.0,SmCo2,Sm1 Co2,['mp-336']
4258,0.0,IrPb,Ir1 Pb1,['mp-510198']
4259,0.0,CeCu2Sb2,Ce1 Cu2 Sb2,['mp-1006321']
4260,0.0,Sm2Cu4Sn5,Sm2 Cu4 Sn5,['mp-570702']
4261,0.0,Ti3SnC2,Ti3 Sn1 C2,['mp-21023']
4262,0.0,CuPtO2,Cu1 Pt1 O2,"['mp-997098', 'mp-996954']"
4263,0.0,Ce2Sb3Pd9,Ce2 Sb3 Pd9,['mp-18287']
4264,0.0,ErB2Ru3,Er1 B2 Ru3,['mp-3093']
4265,0.0,YTiO3,Y1 Ti1 O3,"['mvc-3431', 'mp-4355', 'mvc-13995', 'mvc-11198']"
4266,0.0,TmCdAg2,Tm1 Cd1 Ag2,['mp-865873']
4267,0.0,Ce4FeSe6O,Ce4 Fe1 Se6 O1,['mp-579188']
4268,0.0,ThHg2,Th1 Hg2,['mp-2215']
4269,0.0,TbGa3,Tb1 Ga3,"['mp-11418', 'mp-867246']"
4270,0.0,V3Cu,V3 Cu1,"['mp-979283', 'mp-1187753']"
4271,0.0,NaCuO,Na1 Cu1 O1,"['mp-7469', 'mp-1008867']"
4272,0.0,SnRh,Sn1 Rh1,['mp-317']
4273,0.0,Er3SnC,Er3 Sn1 C1,['mp-22537']
4274,0.0,NbCrW,Nb1 Cr1 W1,['mp-631452']
4275,0.0,TmSi2Os2,Tm1 Si2 Os2,['mp-570217']
4276,0.0,NbRu2Cl,Nb1 Ru2 Cl1,['mp-631412']
4277,0.0,CaIn4Ir,Ca1 In4 Ir1,['mp-20838']
4278,0.0,HfPt,Hf1 Pt1,"['mp-11455', 'mp-1007691']"
4279,0.0,BTe2As,B1 Te2 As1,['mp-631524']
4280,0.0,MnFeAs,Mn1 Fe1 As1,"['mp-4238', 'mp-505803']"
4281,0.0,TbMn6Ge6,Tb1 Mn6 Ge6,['mp-22012']
4282,0.0,GdO2,Gd1 O2,['mp-21149']
4283,0.0,BiO,Bi1 O1,['mp-27945']
4284,0.0,BeSiOs2,Be1 Si1 Os2,['mp-867107']
4285,0.0,CeSi2Ni2,Ce1 Si2 Ni2,['mp-4537']
4286,0.0,B4W,B4 W1,['mp-29651']
4287,0.0,ZrAu4,Zr1 Au4,['mp-17813']
4288,0.0,EuLi2Sn,Eu1 Li2 Sn1,['mp-867474']
4289,0.0,MnTePd,Mn1 Te1 Pd1,"['mp-22792', 'mp-622980']"
4290,0.0,LiLu2Pd,Li1 Lu2 Pd1,['mp-973286']
4291,0.0,CaB2Ir2,Ca1 B2 Ir2,['mp-14445']
4292,0.0,Y3Tm,Y3 Tm1,['mp-981249']
4293,0.0,ErSi2Pd2,Er1 Si2 Pd2,['mp-3218']
4294,0.0,LaSi,La1 Si1,"['mp-7083', 'mp-1860']"
4295,0.0,Li4Cr3NiO8,Li4 Cr3 Ni1 O8,"['mp-754443', 'mp-1316383', 'mp-768717', 'mp-1318530', 'mp-754279', 'mp-768700', 'mp-754209', 'mp-754314', 'mp-1302618', 'mp-755661', 'mp-768769', 'mp-753765', 'mp-756061']"
4296,0.0,Dy6FeTe2,Dy6 Fe1 Te2,['mp-10516']
4297,0.0,In3Au10,In3 Au10,['mp-510099']
4298,0.0,Ho2Ge5Rh3,Ho2 Ge5 Rh3,['mp-17534']
4299,0.0,TmSiCu,Tm1 Si1 Cu1,['mp-8123']
4300,0.0,Sr2GaCo2O7,Sr2 Ga1 Co2 O7,['mvc-429']
4301,0.0,YBi,Y1 Bi1,['mp-23241']
4302,0.0,CeAl2Zn2,Ce1 Al2 Zn2,['mp-3286']
4303,0.0,CeMgZn2,Ce1 Mg1 Zn2,['mp-13254']
4304,0.0,K3Hg,K3 Hg1,"['mp-983388', 'mp-983365']"
4305,0.0,NdSn2,Nd1 Sn2,['mp-12701']
4306,0.0,Ce6B2(CBr)3,Ce6 B2 C3 Br3,['mp-570060']
4307,0.0,Ni3Pt,Ni3 Pt1,"['mp-12798', 'mp-1100766']"
4308,0.0,Dy2Ni12P7,Dy2 Ni12 P7,['mp-864836']
4309,0.0,TmGe,Tm1 Ge1,['mp-998911']
4310,0.0,AgAu3,Ag1 Au3,"['mp-1183224', 'mp-985287', 'mp-867303']"
4311,0.0,CdAsPd5,Cd1 As1 Pd5,['mp-1025294']
4312,0.0,GdSbPd,Gd1 Sb1 Pd1,['mp-21061']
4313,0.0,SrTl2,Sr1 Tl2,['mp-30877']
4314,0.0,Zr6Al2CoH10,Zr6 Al2 Co1 H10,['mp-24670']
4315,0.0,NdAgAs2,Nd1 Ag1 As2,"['mp-10816', 'mp-864793']"
4316,0.0,Er2Fe14B,Er2 Fe14 B1,['mp-3680']
4317,0.0,Ti2CuS4,Ti2 Cu1 S4,"['mp-676377', 'mp-559918', 'mp-3951']"
4318,0.0,Na8Hg3,Na8 Hg3,['mp-541787']
4319,0.0,Te2Mo(WS2)3,Te2 Mo1 W3 S6,"['mp-1029248', 'mp-1029118', 'mp-1029076', 'mp-1027070', 'mp-1028929', 'mp-1027395', 'mp-1028999']"
4320,0.0,Tm5Ge10Rh4,Tm5 Ge10 Rh4,['mp-21810']
4321,0.0,Mn2CoAs,Mn2 Co1 As1,['mp-1017515']
4322,0.0,ErNiSn,Er1 Ni1 Sn1,['mp-622620']
4323,0.0,HfSi,Hf1 Si1,['mp-1042']
4324,0.0,Ce3Al12Ru4,Ce3 Al12 Ru4,['mp-31079']
4325,0.0,Yb2ZnPb,Yb2 Zn1 Pb1,['mp-977424']
4326,0.0,Mg3Bi2,Mg3 Bi2,"['mp-569018', 'mp-1196079']"
4327,0.0,Cu3Pd,Cu3 Pd1,"['mp-672265', 'mp-680639', 'mp-580357']"
4328,0.0,LiCuPO4,Li1 Cu1 P1 O4,"['mp-504264', 'mp-758531', 'mp-757209', 'mp-758750', 'mp-25885', 'mp-26513', 'mp-504304', 'mp-755245', 'mp-758990', 'mp-25449', 'mp-758542', 'mp-758430', 'mp-1176767', 'mp-758880', 'mp-758192', 'mp-752507', 'mp-26477', 'mp-758886', 'mp-758497', 'mp-758624', 'mp-758415', 'mp-759776', 'mp-26467', 'mp-27048', 'mp-758071', 'mp-758918', 'mp-759627', 'mp-758955', 'mp-758616', 'mp-759346', 'mp-758520', 'mp-759823', 'mp-769278', 'mp-27064', 'mp-758796', 'mp-758100', 'mp-758170', 'mp-769272', 'mp-758897', 'mp-773891', 'mp-769290', 'mp-758828', 'mp-673128', 'mp-759365', 'mp-769274', 'mp-761191', 'mp-762220', 'mp-758176', 'mp-759334', 'mp-758856']"
4329,0.0,CaGaGe,Ca1 Ga1 Ge1,['mp-541310']
4330,0.0,TbGa2Co3,Tb1 Ga2 Co3,"['mp-644529', 'mp-568687']"
4331,0.0,W2C,W2 C1,"['mp-33065', 'mp-1008625', 'mp-2034', 'mp-567397']"
4332,0.0,Cs2NaCoF6,Cs2 Na1 Co1 F6,['mp-558211']
4333,0.0,DyAl8Cu4,Dy1 Al8 Cu4,['mp-984726']
4334,0.0,DyInPt2,Dy1 In1 Pt2,"['mp-1078790', 'mp-1025525']"
4335,0.0,LaSi2Os2,La1 Si2 Os2,['mp-567203']
4336,0.0,TmSnRh,Tm1 Sn1 Rh1,['mp-11974']
4337,0.0,TmB2C,Tm1 B2 C1,['mp-15604']
4338,0.0,Li2MnCu3O8,Li2 Mn1 Cu3 O8,"['mp-754267', 'mp-760025']"
4339,0.0,Ho3Pd2,Ho3 Pd2,['mp-12544']
4340,0.0,La10Si8O3,La10 Si8 O3,['mp-555465']
4341,0.0,Ce2Co5B2,Ce2 Co5 B2,['mp-574273']
4342,0.0,Ca2Mn9O13,Ca2 Mn9 O13,['mvc-2270']
4343,0.0,YbKSe2,Yb1 K1 Se2,['mp-10989']
4344,0.0,BaTi14O28,Ba1 Ti14 O28,"['mp-757751', 'mp-773131']"
4345,0.0,Nb40N21O16,Nb40 N21 O16,['mp-685674']
4346,0.0,YbAgO2,Yb1 Ag1 O2,['mp-13166']
4347,0.0,TmGe2Ru2,Tm1 Ge2 Ru2,['mp-570907']
4348,0.0,Ca3Cu2(ClO2)2,Ca3 Cu2 Cl2 O4,['mp-23095']
4349,0.0,GeRh,Ge1 Rh1,"['mp-20866', 'mp-22239']"
4350,0.0,YCdHg2,Y1 Cd1 Hg2,['mp-865525']
4351,0.0,USi3,U1 Si3,['mp-2800']
4352,0.0,NdGe2Pt2,Nd1 Ge2 Pt2,"['mp-1079773', 'mp-21070']"
4353,0.0,Mn3NiN,Mn3 Ni1 N1,['mp-20362']
4354,0.0,GeAs3,Ge1 As3,"['mp-973736', 'mp-1224319']"
4355,0.0,HoTiSi,Ho1 Ti1 Si1,['mp-22274']
4356,0.0,AgPdO2,Ag1 Pd1 O2,"['mp-997038', 'mp-997039']"
4357,0.0,EuP2Os2,Eu1 P2 Os2,['mp-20802']
4358,0.0,Li2NdSb2,Li2 Nd1 Sb2,['mp-20106']
4359,0.0,Cu2H3ClO3,Cu2 H3 Cl1 O3,"['mp-1181662', 'mp-510547', 'mp-1201073', 'mp-642737', 'mp-559094', 'mp-1181656']"
4360,0.0,ThGe2Pd2,Th1 Ge2 Pd2,['mp-4147']
4361,0.0,Nb3B2,Nb3 B2,['mp-20689']
4362,0.0,YAl2Si2,Y1 Al2 Si2,['mp-10435']
4363,0.0,V2ZnO4,V2 Zn1 O4,"['mvc-5133', 'mp-1302614', 'mvc-5260', 'mp-18879', 'mvc-10130', 'mvc-9963', 'mvc-16832', 'mvc-12124', 'mvc-12618', 'mvc-6409', 'mvc-6915', 'mvc-12029', 'mvc-6639']"
4364,0.0,YAl10Fe2,Y1 Al10 Fe2,['mp-16744']
4365,0.0,CaMgSn,Ca1 Mg1 Sn1,"['mp-962068', 'mp-4864']"
4366,0.0,TaRh3,Ta1 Rh3,['mp-1020']
4367,0.0,Lu2Mo2C3,Lu2 Mo2 C3,['mp-973756']
4368,0.0,Dy2Ti3Si4,Dy2 Ti3 Si4,['mp-19950']
4369,0.0,HoC2,Ho1 C2,['mp-1423']
4370,0.0,CeAl2Pd5,Ce1 Al2 Pd5,['mp-1025445']
4371,0.0,BeSiRu2,Be1 Si1 Ru2,['mp-867835']
4372,0.0,NdInCu,Nd1 In1 Cu1,['mp-22696']
4373,0.0,CeRh,Ce1 Rh1,['mp-1018117']
4374,0.0,CaMnSn,Ca1 Mn1 Sn1,['mp-20233']
4375,0.0,Sm4In21Pd10,Sm4 In21 Pd10,"['mp-680615', 'mp-1179485']"
4376,0.0,CsIr,Cs1 Ir1,['mp-985281']
4377,0.0,NbPt2,Nb1 Pt2,"['mp-1220321', 'mp-11514']"
4378,0.0,TbAl3C3,Tb1 Al3 C3,['mp-972049']
4379,0.0,LaPt5,La1 Pt5,['mp-1832']
4380,0.0,AlCoO3,Al1 Co1 O3,"['mp-1178576', 'mp-1248478', 'mvc-15871', 'mvc-13532', 'mvc-11226', 'mp-776216', 'mvc-3774', 'mp-756947']"
4381,0.0,NaIrPb,Na1 Ir1 Pb1,['mp-631317']
4382,0.0,ZnCu3P3O13,Zn1 Cu3 P3 O13,['mvc-10270']
4383,0.0,Tb5Tl3,Tb5 Tl3,['mp-30879']
4384,0.0,PrCo2As2,Pr1 Co2 As2,['mp-571008']
4385,0.0,Mg3Ni20B6,Mg3 Ni20 B6,['mp-10117']
4386,0.0,ScGa6Fe6,Sc1 Ga6 Fe6,['mp-11438']
4387,0.0,Ce2CrN3,Ce2 Cr1 N3,['mp-9277']
4388,0.0,LuGe2,Lu1 Ge2,['mp-973906']
4389,0.0,SrIn4Ir,Sr1 In4 Ir1,['mp-21901']
4390,0.0,ThU8O18,Th1 U8 O18,['mp-760467']
4391,0.0,Rh7Pb3O15,Rh7 Pb3 O15,['mp-555277']
4392,0.0,RbAgF3,Rb1 Ag1 F3,"['mp-867844', 'mp-7767']"
4393,0.0,TaPd3,Ta1 Pd3,"['mp-30836', 'mp-582360']"
4394,0.0,AlVCo2,Al1 V1 Co2,['mp-4955']
4395,0.0,SrLaMn2O6,Sr1 La1 Mn2 O6,"['mp-39412', 'mp-699554']"
4396,0.0,Be2W,Be2 W1,['mp-11282']
4397,0.0,CdAg,Cd1 Ag1,"['mp-2642', 'mp-1226728', 'mp-1226726', 'mp-1226716']"
4398,0.0,VSb,V1 Sb1,['mp-7821']
4399,0.0,Fe2S,Fe2 S1,"['mp-684641', 'mp-851357']"
4400,0.0,Ho3P,Ho3 P1,['mp-977145']
4401,0.0,PmMgAu2,Pm1 Mg1 Au2,['mp-862933']
4402,0.0,SbPt3,Sb1 Pt3,"['mp-973353', 'mp-973354', 'mp-1078755', 'mp-1186949']"
4403,0.0,NaTa3,Na1 Ta3,['mp-977140']
4404,0.0,Cd2AgRh,Cd2 Ag1 Rh1,['mp-861878']
4405,0.0,Pr2CdSn,Pr2 Cd1 Sn1,['mp-982009']
4406,0.0,Li3Mn2(CoO4)2,Li3 Mn2 Co2 O8,"['mp-757164', 'mp-779153', 'mp-778583']"
4407,0.0,CeHg,Ce1 Hg1,['mp-702']
4408,0.0,LaCd2,La1 Cd2,['mp-12055']
4409,0.0,SmTmZn2,Sm1 Tm1 Zn2,['mp-972522']
4410,0.0,ThAl3,Th1 Al3,['mp-1306']
4411,0.0,SnP3O9,Sn1 P3 O9,"['mp-684482', 'mp-765595', 'mp-672972', 'mp-673129', 'mp-1101518', 'mp-26762', 'mp-26172']"
4412,0.0,HfV2H4,Hf1 V2 H4,['mp-976724']
4413,0.0,Cr4Cu3Te8,Cr4 Cu3 Te8,['mp-675546']
4414,0.0,Li6Fe3Co7O20,Li6 Fe3 Co7 O20,['mp-759810']
4415,0.0,ZrTiF6,Zr1 Ti1 F6,['mp-16548']
4416,0.0,Ba7Ru4Br2O15,Ba7 Ru4 Br2 O15,['mp-556877']
4417,0.0,HfCo3B2,Hf1 Co3 B2,"['mp-1106407', 'mp-7804']"
4418,0.0,LiMgSnPd,Li1 Mg1 Sn1 Pd1,['mp-7555']
4419,0.0,EuSnAu2,Eu1 Sn1 Au2,['mp-867138']
4420,0.0,LiHoO3,Li1 Ho1 O3,['mp-973818']
4421,0.0,Sr3Li4La5O12,Sr3 Li4 La5 O12,['mp-756936']
4422,0.0,Mn2CoGe,Mn2 Co1 Ge1,['mp-22289']
4423,0.0,TbCo2Ge2,Tb1 Co2 Ge2,['mp-3709']
4424,0.0,ThSi,Th1 Si1,['mp-21238']
4425,0.0,CoCu2Sn,Co1 Cu2 Sn1,['mp-12801']
4426,0.0,Tb3Rb2AlF16,Tb3 Rb2 Al1 F16,"['mp-559737', 'mp-561413']"
4427,0.0,CeMgAg2,Ce1 Mg1 Ag2,['mp-865037']
4428,0.0,NaCdSb,Na1 Cd1 Sb1,['mp-13459']
4429,0.0,Li3Cu2O4,Li3 Cu2 O4,"['mp-545467', 'mp-25317', 'mp-1222709']"
4430,0.0,TmMn6Ge6,Tm1 Mn6 Ge6,['mp-5641']
4431,0.0,YbB2Rh3,Yb1 B2 Rh3,['mp-1025051']
4432,0.0,Rb2NaNiF6,Rb2 Na1 Ni1 F6,['mp-556353']
4433,0.0,NdCu3(RuO3)4,Nd1 Cu3 Ru4 O12,['mp-22666']
4434,0.0,Dy2AlCo2,Dy2 Al1 Co2,['mp-13431']
4435,0.0,Cr4As3,Cr4 As3,['mp-28704']
4436,0.0,AsAu3,As1 Au3,['mp-984353']
4437,0.0,Lu3InN,Lu3 In1 N1,['mp-11733']
4438,0.0,BaAl2,Ba1 Al2,['mp-551']
4439,0.0,ErCu,Er1 Cu1,['mp-1955']
4440,0.0,Fe3N,Fe3 N1,"['mp-673635', 'mp-1804']"
4441,0.0,EuRbO2,Eu1 Rb1 O2,['mp-20277']
4442,0.0,CeAsPd,Ce1 As1 Pd1,"['mp-8948', 'mp-1226670']"
4443,0.0,ScSbRu2,Sc1 Sb1 Ru2,['mp-862561']
4444,0.0,Sr2YReO6,Sr2 Y1 Re1 O6,['mp-7889']
4445,0.0,UVC2,U1 V1 C2,['mp-7810']
4446,0.0,ScV2Ga4,Sc1 V2 Ga4,['mp-1025365']
4447,0.0,Ho2Pd2Pb,Ho2 Pd2 Pb1,['mp-31089']
4448,0.0,AuBrO2,Au1 Br1 O2,"['mp-997033', 'mp-997040']"
4449,0.0,Pr2HgPb,Pr2 Hg1 Pb1,['mp-861498']
4450,0.0,ZrGe2,Zr1 Ge2,['mp-2430']
4451,0.0,Sr7Bi23O40,Sr7 Bi23 O40,['mp-758327']
4452,0.0,YbAl2Si2,Yb1 Al2 Si2,['mp-10405']
4453,0.0,Tm2ZnAg,Tm2 Zn1 Ag1,['mp-971979']
4454,0.0,SrGa2Au2,Sr1 Ga2 Au2,['mp-12780']
4455,0.0,ThRh2,Th1 Rh2,['mp-568337']
4456,0.0,Sr3Al2Sn2,Sr3 Al2 Sn2,['mp-7376']
4457,0.0,CdAuO2,Cd1 Au1 O2,"['mp-997036', 'mp-997037']"
4458,0.0,Li3Mn(NiO3)2,Li3 Mn1 Ni2 O6,"['mp-867526', 'mp-756364']"
4459,0.0,VIr,V1 Ir1,"['mp-1204410', 'mp-1079131', 'mp-569250', 'mp-1079582', 'mp-1178808', 'mp-982070', 'mp-1178810', 'mp-1281']"
4460,0.0,Cr3N2,Cr3 N2,"['mp-1014444', 'mp-1096885', 'mp-1014318', 'mp-1097796', 'mp-1014303', 'mp-1014454', 'mp-1097803', 'mp-1096898', 'mp-1096882', 'mp-1014509']"
4461,0.0,TbHg2,Tb1 Hg2,"['mp-1008754', 'mp-1206728', 'mp-1062648']"
4462,0.0,MgMnO3,Mg1 Mn1 O3,"['mp-770581', 'mp-976446', 'mp-770618']"
4463,0.0,Y4AsSe3,Y4 As1 Se3,['mp-38494']
4464,0.0,CaAl8Co2,Ca1 Al8 Co2,['mp-17871']
4465,0.0,Mn2AlO4,Mn2 Al1 O4,"['mvc-11435', 'mp-768538', 'mp-1011710', 'mp-1258376']"
4466,0.0,Cd13I28,Cd13 I28,['mp-703595']
4467,0.0,LiHg2Pd,Li1 Hg2 Pd1,['mp-861896']
4468,0.0,EuCuSeF,Eu1 Cu1 Se1 F1,['mp-21356']
4469,0.0,Al21Pt8,Al21 Pt8,['mp-1982']
4470,0.0,YbBa2(CuO2)4,Yb1 Ba2 Cu4 O8,['mp-15039']
4471,0.0,EuKS2,Eu1 K1 S2,['mp-1018137']
4472,0.0,Ba5In4Bi5,Ba5 In4 Bi5,['mp-31407']
4473,0.0,Cu7Hg6,Cu7 Hg6,['mp-628808']
4474,0.0,CsSn3,Cs1 Sn3,['mp-865565']
4475,0.0,Ta2N,Ta2 N1,"['mp-10196', 'mp-1079438']"
4476,0.0,PmHgAu2,Pm1 Hg1 Au2,['mp-862912']
4477,0.0,Ti3Pt5,Ti3 Pt5,['mp-30851']
4478,0.0,Mn5O3F5,Mn5 O3 F5,"['mp-752519', 'mp-754132', 'mp-1277673', 'mp-1311116', 'mp-1292551']"
4479,0.0,Zr4AlNi2,Zr4 Al1 Ni2,"['mp-645193', 'mp-1261118']"
4480,0.0,TaW3,Ta1 W3,['mp-979289']
4481,0.0,SmHg3,Sm1 Hg3,['mp-867879']
4482,0.0,Sr8Al7,Sr8 Al7,['mp-11224']
4483,0.0,Hf5Pb,Hf5 Pb1,['mp-1018715']
4484,0.0,CeB2C2,Ce1 B2 C2,"['mp-1087507', 'mp-20908']"
4485,0.0,SrTlHg2,Sr1 Tl1 Hg2,['mp-981311']
4486,0.0,LiCa2In,Li1 Ca2 In1,['mp-867211']
4487,0.0,Li2MgSn,Li2 Mg1 Sn1,"['mp-865935', 'mp-1222615']"
4488,0.0,YIn2Ni,Y1 In2 Ni1,['mp-22056']
4489,0.0,LaP2Ru2,La1 P2 Ru2,['mp-9886']
4490,0.0,CaOsO3,Ca1 Os1 O3,"['mp-1016900', 'mp-1213970']"
4491,0.0,TlNi,Tl1 Ni1,['mp-11524']
4492,0.0,GaSiRu2,Ga1 Si1 Ru2,['mp-865615']
4493,0.0,LuIr2,Lu1 Ir2,['mp-1761']
4494,0.0,UAu2,U1 Au2,['mp-12072']
4495,0.0,Ti2B,Ti2 B1,"['mp-1025149', 'mp-1071504']"
4496,0.0,V2RuOs,V2 Ru1 Os1,['mp-971737']
4497,0.0,Nd3Zr,Nd3 Zr1,['mp-976751']
4498,0.0,Hf2Si,Hf2 Si1,['mp-9938']
4499,0.0,Li14Ti21O48,Li14 Ti21 O48,['mp-530600']
4500,0.0,Li4WO5,Li4 W1 O5,"['mp-555377', 'mp-690542']"
4501,0.0,ThAl10Fe2,Th1 Al10 Fe2,['mp-568030']
4502,0.0,TbInIr,Tb1 In1 Ir1,['mp-22032']
4503,0.0,DySiIr,Dy1 Si1 Ir1,['mp-20281']
4504,0.0,ReCl4,Re1 Cl4,['mp-27340']
4505,0.0,Ce3SiPt5,Ce3 Si1 Pt5,['mp-569913']
4506,0.0,NiAgO2,Ni1 Ag1 O2,"['mp-1279484', 'mp-19069', 'mp-19284']"
4507,0.0,CaTi4S8,Ca1 Ti4 S8,"['mvc-11744', 'mvc-11739', 'mvc-16037']"
4508,0.0,PrErMg2,Pr1 Er1 Mg2,['mp-976151']
4509,0.0,Nb17Ir3S40,Nb17 Ir3 S40,['mp-674499']
4510,0.0,HoB2C2,Ho1 B2 C2,"['mp-20410', 'mp-1084797']"
4511,0.0,Ti9O10,Ti9 O10,"['mp-32813', 'mp-1217149']"
4512,0.0,TeMoSe,Te1 Mo1 Se1,"['mp-1030732', 'mp-1023948', 'mp-1030393', 'mp-1030709', 'mp-1217293', 'mp-1027683']"
4513,0.0,RbGe3,Rb1 Ge3,['mp-862769']
4514,0.0,Tm2IrPd,Tm2 Ir1 Pd1,['mp-865354']
4515,0.0,RbWO3,Rb1 W1 O3,['mp-975138']
4516,0.0,PmSbRh2,Pm1 Sb1 Rh2,['mp-862955']
4517,0.0,LuNiBC,Lu1 Ni1 B1 C1,['mp-6188']
4518,0.0,RuCl3,Ru1 Cl3,"['mp-570997', 'mp-570880', 'mp-22850']"
4519,0.0,Ti2RuOs,Ti2 Ru1 Os1,['mp-865842']
4520,0.0,Li4Fe9O18,Li4 Fe9 O18,['mp-771396']
4521,0.0,SrPb3,Sr1 Pb3,['mp-21162']
4522,0.0,Li2U(MoO5)2,Li2 U1 Mo2 O10,['mp-560793']
4523,0.0,LiSiRh2,Li1 Si1 Rh2,['mp-867902']
4524,0.0,GdSi2Ru2,Gd1 Si2 Ru2,['mp-569302']
4525,0.0,ZrSbRu,Zr1 Sb1 Ru1,['mp-31457']
4526,0.0,DyZnGa,Dy1 Zn1 Ga1,['mp-1018682']
4527,0.0,SmCo3B2,Sm1 Co3 B2,['mp-5410']
4528,0.0,Tb2C3,Tb2 C3,['mp-7024']
4529,0.0,CaPrZn2,Ca1 Pr1 Zn2,['mp-866015']
4530,0.0,Pr6Fe13Si,Pr6 Fe13 Si1,['mp-9537']
4531,0.0,Hg3Sb,Hg3 Sb1,"['mp-1184651', 'mp-977242', 'mp-975461']"
4532,0.0,SrCo2P2,Sr1 Co2 P2,['mp-5671']
4533,0.0,K11Mn4O16,K11 Mn4 O16,['mp-775539']
4534,0.0,MgCuSb,Mg1 Cu1 Sb1,['mp-3522']
4535,0.0,Li3FeS3,Li3 Fe1 S3,"['mp-777742', 'mp-768214', 'mp-768288', 'mp-752670']"
4536,0.0,Ce5Si3N9,Ce5 Si3 N9,['mp-571312']
4537,0.0,Fe2Cu(PO4)3,Fe2 Cu1 P3 O12,['mp-775240']
4538,0.0,BeTcSe,Be1 Tc1 Se1,['mp-631462']
4539,0.0,V2Si2O7,V2 Si2 O7,"['mp-756212', 'mp-1289183', 'mp-1276230', 'mp-754719']"
4540,0.0,Ca2NiIrO6,Ca2 Ni1 Ir1 O6,['mvc-5855']
4541,0.0,Ti2AlV,Ti2 Al1 V1,['mp-999068']
4542,0.0,CeAlSi2,Ce1 Al1 Si2,['mp-9400']
4543,0.0,Re2RuBr,Re2 Ru1 Br1,['mp-631592']
4544,0.0,CaGe2,Ca1 Ge2,"['mp-1009654', 'mp-1024', 'mp-567456', 'mp-13286', 'mp-643542']"
4545,0.0,Ta6Be15Cu8,Ta6 Be15 Cu8,['mp-30439']
4546,0.0,Tb5Ti5O17,Tb5 Ti5 O17,['mp-850834']
4547,0.0,Tm2TcCu,Tm2 Tc1 Cu1,['mp-977593']
4548,0.0,MgSnRh2,Mg1 Sn1 Rh2,['mp-866073']
4549,0.0,Zr2Co21B6,Zr2 Co21 B6,['mp-541854']
4550,0.0,SmNiC2,Sm1 Ni1 C2,['mp-999144']
4551,0.0,V8O,V8 O1,['mp-714972']
4552,0.0,WCl3,W1 Cl3,['mp-23269']
4553,0.0,Sm2Mo2O7,Sm2 Mo2 O7,"['mp-1173421', 'mp-554770', 'mp-698594', 'mp-1219287']"
4554,0.0,DyAg,Dy1 Ag1,['mp-2167']
4555,0.0,Ba2YReO6,Ba2 Y1 Re1 O6,['mp-6430']
4556,0.0,V2NO,V2 N1 O1,"['mp-690555', 'mp-1216644']"
4557,0.0,V2O3F3,V2 O3 F3,"['mp-763965', 'mp-754270', 'mp-758518', 'mp-756882', 'mp-752980', 'mp-754244', 'mp-763169', 'mp-850989', 'mp-764087', 'mp-776574']"
4558,0.0,ErCuPb,Er1 Cu1 Pb1,"['mp-16751', 'mp-1077463']"
4559,0.0,Ba3ErRu2O9,Ba3 Er1 Ru2 O9,['mp-541721']
4560,0.0,Cu4W(SCl)4,Cu4 W1 S4 Cl4,"['mp-672345', 'mp-1181548']"
4561,0.0,Lu2MgHg,Lu2 Mg1 Hg1,['mp-973771']
4562,0.0,Sr2CoReO6,Sr2 Co1 Re1 O6,"['mp-31515', 'mp-561870']"
4563,0.0,HfOs2,Hf1 Os2,['mp-570960']
4564,0.0,CrMo2S4,Cr1 Mo2 S4,['mp-542188']
4565,0.0,LiCo7O7F,Li1 Co7 O7 F1,['mp-759978']
4566,0.0,SmMgHg2,Sm1 Mg1 Hg2,['mp-867181']
4567,0.0,Y2Ge2O7,Y2 Ge2 O7,"['mp-13546', 'mp-769466', 'mp-769396', 'mp-769346']"
4568,0.0,TiFe2As,Ti1 Fe2 As1,['mp-999002']
4569,0.0,Sc2P3O12,Sc2 P3 O12,['mp-775184']
4570,0.0,BaDy2CuO5,Ba1 Dy2 Cu1 O5,['mp-22550']
4571,0.0,Li2Sn5,Li2 Sn5,['mp-7924']
4572,0.0,Li5Mn2Cu5O12,Li5 Mn2 Cu5 O12,['mp-764735']
4573,0.0,GaAs2W,Ga1 As2 W1,['mp-631565']
4574,0.0,Fe4Si2Sn7O16,Fe4 Si2 Sn7 O16,['mp-628588']
4575,0.0,Lu3Ga,Lu3 Ga1,['mp-973300']
4576,0.0,Zr2Te,Zr2 Te1,['mp-21559']
4577,0.0,CsAgCl3,Cs1 Ag1 Cl3,['mp-28610']
4578,0.0,BMo,B1 Mo1,"['mp-999198', 'mp-1890']"
4579,0.0,YbTbHg2,Yb1 Tb1 Hg2,['mp-865254']
4580,0.0,YbH2ClO2,Yb1 H2 Cl1 O2,"['mp-1191250', 'mp-979964']"
4581,0.0,MgTi4S8,Mg1 Ti4 S8,"['mvc-11283', 'mp-38816']"
4582,0.0,TaGaPt,Ta1 Ga1 Pt1,['mp-961677']
4583,0.0,SmCuO3,Sm1 Cu1 O3,"['mp-770767', 'mp-1076706', 'mp-772548']"
4585,0.0,Li2Cu2S3,Li2 Cu2 S3,['mp-774762']
4586,0.0,Pd16S7,Pd16 S7,['mp-393']
4587,0.0,HoSi,Ho1 Si1,"['mp-12899', 'mp-12900']"
4588,0.0,TaPt3,Ta1 Pt3,"['mp-567638', 'mp-30850']"
4589,0.0,Si4Cu5O14,Si4 Cu5 O14,"['mp-25205', 'mp-1200185', 'mp-1204432']"
4590,0.0,CdPd,Cd1 Pd1,['mp-1696']
4591,0.0,Tm2ZnOs,Tm2 Zn1 Os1,['mp-865236']
4592,0.0,SmCdHg2,Sm1 Cd1 Hg2,['mp-867157']
4593,0.0,CaZn3Ni2,Ca1 Zn3 Ni2,['mp-542953']
4594,0.0,Pm2LiSi,Pm2 Li1 Si1,['mp-863697']
4595,0.0,TiZn3,Ti1 Zn3,"['mp-21289', 'mp-1187531']"
4596,0.0,Eu2ReO5,Eu2 Re1 O5,['mp-20209']
4597,0.0,PmDy3,Pm1 Dy3,"['mp-973881', 'mp-1186565', 'mp-1186552']"
4598,0.0,HfGaCo2,Hf1 Ga1 Co2,['mp-3576']
4599,0.0,BaNb4O6,Ba1 Nb4 O6,['mp-505517']
4600,0.0,U4Re7Si6,U4 Re7 Si6,['mp-504442']
4601,0.0,NdSbPd,Nd1 Sb1 Pd1,"['mp-1018815', 'mp-570619']"
4602,0.0,ErAl20Cr2,Er1 Al20 Cr2,['mp-680636']
4603,0.0,EuCuSeO,Eu1 Cu1 Se1 O1,['mp-510596']
4604,0.0,U4S3,U4 S3,['mp-21063']
4605,0.0,Tl3Ir,Tl3 Ir1,"['mp-1080016', 'mp-971750']"
4606,0.0,Ce4Bi3,Ce4 Bi3,['mp-23252']
4607,0.0,NiI,Ni1 I1,['mp-973936']
4608,0.0,Pm3I,Pm3 I1,"['mp-1186518', 'mp-976867']"
4609,0.0,Pm2IrRh,Pm2 Ir1 Rh1,['mp-863722']
4610,0.0,TmCoSi2,Tm1 Co1 Si2,['mp-1025408']
4611,0.0,SbPd3,Sb1 Pd3,"['mp-1186930', 'mp-973402', 'mp-1186928']"
4612,0.0,Yb2Ce8O19,Yb2 Ce8 O19,['mp-677392']
4613,0.0,Li6Ni5O10,Li6 Ni5 O10,['mp-752908']
4614,0.0,Ho3Ni19B10,Ho3 Ni19 B10,['mp-28151']
4615,0.0,BePd2,Be1 Pd2,['mp-13452']
4616,0.0,Ni2Ge,Ni2 Ge1,"['mp-1594', 'mp-17383']"
4617,0.0,Mn5O7,Mn5 O7,['mvc-2560']