,Eg (eV),Comp,composition,mp_ids
3069,0.0,Tm4In(NiGe2)2,Tm4 In1 Ni2 Ge4,['mp-13511']
3070,0.0,HoTh3,Ho1 Th3,['mp-976588']
3071,0.0,Tb11S16,Tb11 S16,['mp-530036']
3072,0.0,KBiO3,K1 Bi1 O3,"['mp-676536', 'mp-863367', 'mp-982040', 'mp-29799']"
3073,0.0,Eu2C(NO)2,Eu2 C1 N2 O2,['mp-22234']
3074,0.0,Y3Fe62B14,Y3 Fe62 B14,['mp-28618']
3075,0.0,BaSn3,Ba1 Sn3,['mp-7759']
3076,0.0,Tb2Li6O7,Tb2 Li6 O7,['mp-562387']
3077,0.0,Sb2I2F11,Sb2 I2 F11,['mp-27236']
3078,0.0,LiIn2Rh,Li1 In2 Rh1,['mp-13396']
3079,0.0,TiC,Ti1 C1,['mp-631']
3080,0.0,Er2SnAu2,Er2 Sn1 Au2,['mp-31143']
3081,0.0,EuRhO3,Eu1 Rh1 O3,['mp-19801']
3082,0.0,TbBaMn2O6,Tb1 Ba1 Mn2 O6,"['mp-559528', 'mp-558858', 'mp-1200431']"
3083,0.0,Yb2Ge2Ir,Yb2 Ge2 Ir1,['mp-10998']
3084,0.0,V3Re,V3 Re1,['mp-865385']
3085,0.0,Mo5As4,Mo5 As4,"['mp-1743', 'mp-569319']"
3086,0.0,Hf2Ni,Hf2 Ni1,['mp-861']
3087,0.0,U2SnRh2,U2 Sn1 Rh2,['mp-639876']
3088,0.0,V3SiNi2,V3 Si1 Ni2,['mp-504625']
3089,0.0,Li4Mn3Cr3O12,Li4 Mn3 Cr3 O12,"['mp-780881', 'mp-754877']"
3090,0.0,Be22Re,Be22 Re1,['mp-569364']
3091,0.0,RbB5(H2O3)4,Rb1 B5 H8 O12,['mp-721194']
3092,0.0,ZrTe,Zr1 Te1,"['mp-568865', 'mp-1539', 'mp-1319', 'mp-569544']"
3093,0.0,Zr3Ag,Zr3 Ag1,['mp-30362']
3094,0.0,AsPd3Pb2,As1 Pd3 Pb2,['mp-20257']
3095,0.0,PrB4,Pr1 B4,['mp-12569']
3096,0.0,DyCo2Ge2,Dy1 Co2 Ge2,['mp-19771']
3097,0.0,Li2SnIr,Li2 Sn1 Ir1,"['mp-1001914', 'mp-1222612']"
3098,0.0,Eu3BWO9,Eu3 B1 W1 O9,['mp-556626']
3099,0.0,HfInCu2,Hf1 In1 Cu2,"['mp-600125', 'mp-1224398']"
3100,0.0,Lu2CdIn,Lu2 Cd1 In1,['mp-866211']
3101,0.0,Li2NdAs2,Li2 Nd1 As2,['mp-7779']
3102,0.0,UCuP2,U1 Cu1 P2,['mp-30534']
3103,0.0,CuPO4F,Cu1 P1 O4 F1,['mp-25380']
3104,0.0,MgPb3,Mg1 Pb3,"['mp-976824', 'mp-1185974', 'mp-976828']"
3105,0.0,SrCdSi,Sr1 Cd1 Si1,['mp-962076']
3106,0.0,Fe6W6C,Fe6 W6 C1,['mp-624243']
3107,0.0,NdCrGe3,Nd1 Cr1 Ge3,['mp-13008']
3108,0.0,Li3Co2(GeO4)3,Li3 Co2 Ge3 O12,['mp-1013807']
3109,0.0,MnFeCoGe,Mn1 Fe1 Co1 Ge1,['mp-1018024']
3110,0.0,AlNi20B14,Al1 Ni20 B14,['mp-505473']
3111,0.0,TaAs,Ta1 As1,['mp-1936']
3112,0.0,Li3Mn(CuO3)2,Li3 Mn1 Cu2 O6,['mp-756973']
3113,0.0,Mn2OF3,Mn2 O1 F3,"['mp-850855', 'mp-849460', 'mp-780692', 'mp-849399', 'mp-775020', 'mp-763007', 'mp-776552', 'mp-777326', 'mp-781060', 'mp-777772', 'mp-755849', 'mp-752756', 'mp-849342', 'mp-780862', 'mp-753938', 'mp-754070', 'mp-752737', 'mp-850904', 'mp-755331', 'mp-780697', 'mp-766557', 'mp-755506', 'mp-760341']"
3114,0.0,K3Fe2S4,K3 Fe2 S4,['mp-541447']
3115,0.0,Li2MnNi3O8,Li2 Mn1 Ni3 O8,"['mp-752530', 'mp-756193', 'mp-758714', 'mp-774906']"
3116,0.0,LiGeRh2,Li1 Ge1 Rh2,['mp-13322']
3117,0.0,MnSiNi2,Mn1 Si1 Ni2,"['mp-1221579', 'mp-999508']"
3118,0.0,CeAl3Ni2,Ce1 Al3 Ni2,['mp-20338']
3119,0.0,HoTlPd,Ho1 Tl1 Pd1,['mp-30732']
3120,0.0,Li2V3FeO8,Li2 V3 Fe1 O8,"['mp-756697', 'mp-775524', 'mp-756321', 'mp-1177821', 'mp-773045', 'mp-776146', 'mp-773482', 'mp-775461']"
3121,0.0,Dy2Ge3Pt9,Dy2 Ge3 Pt9,['mp-641314']
3122,0.0,Cu11Sb4S13,Cu11 Sb4 S13,['mp-676076']
3123,0.0,K2NbO6,K2 Nb1 O6,['mp-675298']
3124,0.0,YbAl4Mo2,Yb1 Al4 Mo2,['mp-4410']
3125,0.0,MgRhF6,Mg1 Rh1 F6,['mp-9927']
3126,0.0,Li2V2F7,Li2 V2 F7,"['mp-760262', 'mp-753952', 'mp-753073', 'mp-753335', 'mp-759454', 'mp-849541', 'mp-760266', 'mp-766139']"
3127,0.0,Ca2Os2O7,Ca2 Os2 O7,['mp-2923']
3128,0.0,Yb2KF7,Yb2 K1 F7,['mp-558435']
3129,0.0,YbLiPb,Yb1 Li1 Pb1,['mp-21242']
3130,0.0,TmMgCd2,Tm1 Mg1 Cd2,['mp-865227']
3131,0.0,U3Cu2Se7,U3 Cu2 Se7,['mp-541587']
3132,0.0,Li2Lu3Ge3,Li2 Lu3 Ge3,['mp-3440']
3133,0.0,Ta5N6,Ta5 N6,"['mp-1642', 'mp-34761']"
3134,0.0,ScCdHg2,Sc1 Cd1 Hg2,['mp-867263']
3135,0.0,LaGa,La1 Ga1,['mp-1002133']
3136,0.0,YbMgPd,Yb1 Mg1 Pd1,['mp-11098']
3137,0.0,La2Ge5Rh3,La2 Ge5 Rh3,['mp-18055']
3138,0.0,HoZnRh,Ho1 Zn1 Rh1,['mp-13380']
3139,0.0,Eu3Sn,Eu3 Sn1,['mp-867368']
3140,0.0,YbGa2Pd,Yb1 Ga2 Pd1,['mp-972051']
3141,0.0,GdSb,Gd1 Sb1,['mp-510403']
3142,0.0,Gd3S4,Gd3 S4,['mp-20036']
3143,0.0,In3Bi7(Pb2S9)2,In3 Bi7 Pb4 S18,['mp-651005']
3144,0.0,LiInAg2,Li1 In1 Ag2,['mp-567787']
3145,0.0,Li4Cu(PO4)2,Li4 Cu1 P2 O8,"['mp-26248', 'mp-752943', 'mp-26312', 'mp-26223']"
3146,0.0,Li2Fe3NiO8,Li2 Fe3 Ni1 O8,"['mp-767972', 'mp-756185', 'mp-1178127', 'mp-753165', 'mp-783903', 'mp-775286', 'mp-774943', 'mp-776112']"
3147,0.0,LiSn(PO3)4,Li1 Sn1 P4 O12,"['mp-26856', 'mp-757806', 'mp-757616', 'mp-765286', 'mp-757597', 'mp-1101525', 'mp-1176593', 'mp-757569', 'mp-757578', 'mp-757663', 'mp-757431', 'mp-757047', 'mp-25907', 'mp-757997', 'mp-1176668', 'mp-757974']"
3148,0.0,Li2Ti3FeO8,Li2 Ti3 Fe1 O8,"['mp-755521', 'mp-754595', 'mp-775874', 'mp-775306', 'mp-1177863']"
3149,0.0,Li2MnCo3O8,Li2 Mn1 Co3 O8,"['mp-755265', 'mp-1306729', 'mp-757572', 'mp-1291754', 'mp-1277684', 'mp-761940', 'mp-757026', 'mp-1304075', 'mp-1306185', 'mp-754108', 'mp-753177']"
3150,0.0,LiCo(CO3)2,Li1 Co1 C2 O6,"['mp-758124', 'mp-1647692', 'mp-1297913', 'mp-753487', 'mp-753259', 'mp-753284', 'mp-753103', 'mp-1273900', 'mp-1282711', 'mp-1638998', 'mp-1307946', 'mp-1639828', 'mp-1303460', 'mp-1638589', 'mp-762401']"
3151,0.0,Li2CrCuO4,Li2 Cr1 Cu1 O4,"['mp-771518', 'mp-754778', 'mp-1178032']"
3152,0.0,CeZnPO,Ce1 Zn1 P1 O1,['mp-13207']
3153,0.0,Lu2AlTc,Lu2 Al1 Tc1,['mp-973625']
3154,0.0,Tb2Sb5,Tb2 Sb5,['mp-641945']
3155,0.0,Nb5Ga4,Nb5 Ga4,['mp-18032']
3156,0.0,Tm2MgTl,Tm2 Mg1 Tl1,['mp-971705']
3157,0.0,ScCoO3,Sc1 Co1 O3,"['mp-1643785', 'mp-1186980', 'mp-754124']"
3158,0.0,ZrIr2,Zr1 Ir2,['mp-715']
3159,0.0,Li3Fe(SbO3)4,Li3 Fe1 Sb4 O12,['mp-756153']
3160,0.0,Co2Ge,Co2 Ge1,['mp-1667']
3161,0.0,Sc14Cu14O37,Sc14 Cu14 O37,['mp-685833']
3162,0.0,TlZn2Tc,Tl1 Zn2 Tc1,['mp-631475']
3163,0.0,SrCe2Se4,Sr1 Ce2 Se4,['mp-36819']
3164,0.0,Bi2P3O12,Bi2 P3 O12,"['mp-26302', 'mp-26100', 'mp-26074', 'mp-26286']"
3165,0.0,NdAs2Pd2,Nd1 As2 Pd2,['mp-12060']
3166,0.0,EuCaO2,Eu1 Ca1 O2,['mp-755389']
3167,0.0,BaAs2Rh2,Ba1 As2 Rh2,['mp-568113']
3168,0.0,CuIr2S4,Cu1 Ir2 S4,['mp-15065']
3169,0.0,KAg2,K1 Ag2,['mp-12735']
3170,0.0,Li2PrIn,Li2 Pr1 In1,['mp-866196']
3171,0.0,Lu2FeS4,Lu2 Fe1 S4,"['mp-686377', 'mp-14306', 'mp-675858']"
3172,0.0,NiGe,Ni1 Ge1,['mp-1099']
3173,0.0,TaInNi,Ta1 In1 Ni1,['mp-961692']
3174,0.0,ScZnNi2,Sc1 Zn1 Ni2,['mp-972935']
3175,0.0,MnAs,Mn1 As1,"['mp-1009131', 'mp-22240', 'mp-610']"
3176,0.0,EuTiO3,Eu1 Ti1 O3,"['mp-1079111', 'mp-22246']"
3177,0.0,Rb3Tm,Rb3 Tm1,"['mp-974748', 'mp-974745', 'mp-1186877']"
3178,0.0,EuF3,Eu1 F3,['mp-19908']
3179,0.0,Yb2Sn,Yb2 Sn1,['mp-570050']
3180,0.0,Bi2Pd3S2,Bi2 Pd3 S2,"['mp-554304', 'mp-23012', 'mp-1182562', 'mp-1104120']"
3181,0.0,TbNi5,Tb1 Ni5,['mp-30808']
3182,0.0,TlCoMo2,Tl1 Co1 Mo2,['mp-631559']
3183,0.0,EuSn3,Eu1 Sn3,['mp-20387']
3184,0.0,Ca2Ti9O13,Ca2 Ti9 O13,['mvc-1915']
3185,0.0,LiGaPt2,Li1 Ga1 Pt2,['mp-867170']
3186,0.0,Ba14Pd3Ir8O33,Ba14 Pd3 Ir8 O33,"['mp-738639', 'mp-680547']"
3187,0.0,NdTlPd,Nd1 Tl1 Pd1,['mp-30799']
3188,0.0,K3V,K3 V1,"['mp-1185139', 'mp-973444']"
3189,0.0,Ba4Sm2Cu2O9,Ba4 Sm2 Cu2 O9,['mp-636383']
3190,0.0,Li5Cr2Ni5O12,Li5 Cr2 Ni5 O12,['mp-774237']
3191,0.0,V2GaSn2,V2 Ga1 Sn2,['mp-640159']
3192,0.0,SrIn2Ir,Sr1 In2 Ir1,['mp-20497']
3193,0.0,MgPt5,Mg1 Pt5,"['mp-1185945', 'mp-977056', 'mp-1185952']"
3194,0.0,ThS,Th1 S1,['mp-503']
3195,0.0,SnAs3,Sn1 As3,"['mp-972472', 'mp-978881']"
3196,0.0,Tm2CdHg,Tm2 Cd1 Hg1,['mp-979258']
3197,0.0,DyBPd3,Dy1 B1 Pd3,['mp-10060']
3198,0.0,Ti3Be,Ti3 Be1,"['mp-978963', 'mp-1187475']"
3199,0.0,Ba5Bi3,Ba5 Bi3,['mp-29621']
3200,0.0,Mn3NbO8,Mn3 Nb1 O8,"['mp-1176463', 'mp-756172']"
3201,0.0,LiMn2(PO4)2,Li1 Mn2 P2 O8,"['mp-753752', 'mp-768470', 'mp-1176680', 'mp-766455', 'mp-753872', 'mp-768477', 'mp-768389', 'mp-777568', 'mp-754033', 'mp-1666995', 'mp-755395', 'mp-766388', 'mp-753423', 'mp-753914', 'mp-766469', 'mp-753779', 'mp-768497', 'mp-753476', 'mp-753420', 'mp-768460', 'mp-1176666', 'mp-1176684', 'mp-768515', 'mp-1176722']"
3202,0.0,TmMnGe,Tm1 Mn1 Ge1,"['mp-20114', 'mp-11615']"
3203,0.0,ErFeC2,Er1 Fe1 C2,['mp-1018064']
3204,0.0,Li4CrO5,Li4 Cr1 O5,"['mp-770826', 'mp-770688', 'mp-772571']"
3205,0.0,Ag2BiO3,Ag2 Bi1 O3,"['mp-558712', 'mp-561113', 'mp-23558']"
3206,0.0,Ho2B4C,Ho2 B4 C1,['mp-1025183']
3207,0.0,AgPt3,Ag1 Pt3,['mp-30353']
3208,0.0,LuAg2,Lu1 Ag2,['mp-1018131']
3209,0.0,La2PI2,La2 P1 I2,['mp-571647']
3210,0.0,CePd5,Ce1 Pd5,['mp-22217']
3211,0.0,MnInCu2,Mn1 In1 Cu2,['mp-22673']
3212,0.0,Sc3Fe2Si3,Sc3 Fe2 Si3,['mp-4755']
3213,0.0,HoMn12,Ho1 Mn12,['mp-14015']
3214,0.0,TbGe2Rh2,Tb1 Ge2 Rh2,['mp-2881']
3215,0.0,ScBe5,Sc1 Be5,['mp-11277']
3216,0.0,V3Ag,V3 Ag1,"['mp-1187719', 'mp-971703']"
3217,0.0,NbCrN,Nb1 Cr1 N1,['mp-20133']
3218,0.0,LiPr2Ru,Li1 Pr2 Ru1,['mp-861661']
3219,0.0,Pr2InGe2,Pr2 In1 Ge2,['mp-20715']
3220,0.0,Ce5Ge3,Ce5 Ge3,['mp-510493']
3221,0.0,Sm2Tl,Sm2 Tl1,['mp-319']
3222,0.0,AlB2,Al1 B2,['mp-944']
3223,0.0,Nd3AlC,Nd3 Al1 C1,['mp-571330']
3224,0.0,Y2U3O11,Y2 U3 O11,['mp-39027']
3225,0.0,BaAg,Ba1 Ag1,['mp-11840']
3226,0.0,U2Cu2As3O,U2 Cu2 As3 O1,['mp-572929']
3227,0.0,TmH2,Tm1 H2,['mp-24727']
3228,0.0,VPO4,V1 P1 O4,"['mp-767632', 'mp-867809', 'mp-26110', 'mvc-9785', 'mp-18835']"
3229,0.0,Li3FeNi3O8,Li3 Fe1 Ni3 O8,"['mp-753275', 'mp-756498', 'mp-761063']"
3230,0.0,TbIn2Ni,Tb1 In2 Ni1,['mp-672325']
3231,0.0,ThCrB4,Th1 Cr1 B4,['mp-22528']
3232,0.0,Ho10Si17,Ho10 Si17,['mp-569851']
3233,0.0,Cs2NaMgF6,Cs2 Na1 Mg1 F6,['mp-989568']
3234,0.0,La3Re2O10,La3 Re2 O10,['mp-29326']
3235,0.0,SmSiCu,Sm1 Si1 Cu1,"['mp-8121', 'mp-1219066']"
3236,0.0,PrNiGe2,Pr1 Ni1 Ge2,['mp-975655']
3237,0.0,Tb2In16Pt7,Tb2 In16 Pt7,['mp-570630']
3238,0.0,Tm5Ti5O17,Tm5 Ti5 O17,['mp-778664']
3239,0.0,PrP,Pr1 P1,['mp-601']
3240,0.0,BaTh3,Ba1 Th3,['mp-984796']
3241,0.0,LaBiAu2,La1 Bi1 Au2,['mp-867908']
3242,0.0,Ta2PtSe7,Ta2 Pt1 Se7,['mp-14474']
3243,0.0,VNi2,V1 Ni2,['mp-11531']
3244,0.0,La8Mn7O24,La8 Mn7 O24,"['mp-765477', 'mp-531566']"
3245,0.0,Mn3SbO8,Mn3 Sb1 O8,"['mp-774390', 'mp-774654', 'mp-754156']"
3246,0.0,HoGeAu,Ho1 Ge1 Au1,"['mp-5519', 'mp-13308']"
3247,0.0,ReTe2Cl12,Re1 Te2 Cl12,"['mp-28633', 'mp-581449']"
3248,0.0,YTi2Ga4,Y1 Ti2 Ga4,['mp-11445']
3249,0.0,TbSe2,Tb1 Se2,['mp-1025077']
3250,0.0,HfV2Ga4,Hf1 V2 Ga4,['mp-1025167']
3251,0.0,Na3UF7,Na3 U1 F7,['mp-35589']
3252,0.0,Al2Cu,Al2 Cu1,"['mp-998', 'mp-985806', 'mp-12794']"
3253,0.0,Nd2WC2,Nd2 W1 C2,['mp-569275']
3254,0.0,EuCl3O12,Eu1 Cl3 O12,['mp-627640']
3255,0.0,Ca3Au,Ca3 Au1,['mp-30366']
3256,0.0,CaNi4O6,Ca1 Ni4 O6,['mvc-882']
3257,0.0,Ca2Sn2F3,Ca2 Sn2 F3,['mp-674232']
3258,0.0,Zr2Al,Zr2 Al1,"['mp-12773', 'mp-2557']"
3259,0.0,NdGaO3,Nd1 Ga1 O3,"['mp-3196', 'mp-9834']"
3260,0.0,Mn2GeS4,Mn2 Ge1 S4,['mp-621925']
3261,0.0,Er2MnC4,Er2 Mn1 C4,['mp-9267']
3262,0.0,Rb5W18O54,Rb5 W18 O54,"['mp-705830', 'mp-761961']"
3263,0.0,Li4Mn(WO4)3,Li4 Mn1 W3 O12,"['mp-774672', 'mp-755247']"
3264,0.0,NiN,Ni1 N1,"['mp-13116', 'mvc-11162', 'mp-1009488', 'mp-1009483', 'mp-973933']"
3265,0.0,Y4C7,Y4 C7,"['mp-1200885', 'mp-9530']"
3266,0.0,Nd2Ni7P4,Nd2 Ni7 P4,['mp-540986']
3267,0.0,LiY2Ru,Li1 Y2 Ru1,['mp-862673']
3268,0.0,U2AlCo2,U2 Al1 Co2,['mp-21269']
3269,0.0,NdIn5Rh,Nd1 In5 Rh1,['mp-510564']
3270,0.0,U6Co,U6 Co1,['mp-582635']
3271,0.0,CuClO2,Cu1 Cl1 O2,"['mp-997020', 'mp-997026', 'mp-997104']"
3272,0.0,Cu4As2O9,Cu4 As2 O9,"['mp-559159', 'mp-21770']"
3273,0.0,TlCu6S4,Tl1 Cu6 S4,['mp-557929']
3274,0.0,MnSb2O6,Mn1 Sb2 O6,"['mp-763546', 'mp-22576', 'mp-690561', 'mp-1078318']"
3275,0.0,TmCo2Si2,Tm1 Co2 Si2,['mp-3262']
3276,0.0,Ti5B12O26,Ti5 B12 O26,['mp-684065']
3277,0.0,CaGe2Rh2,Ca1 Ge2 Rh2,['mp-16261']
3278,0.0,BaLi4,Ba1 Li4,['mp-210']
3279,0.0,Li4Co5SbO12,Li4 Co5 Sb1 O12,['mp-757593']
3280,0.0,Mn2AlB2,Mn2 Al1 B2,['mp-7892']
3281,0.0,EuBi3,Eu1 Bi3,['mp-865246']
3282,0.0,Li4Mn5Cu3O16,Li4 Mn5 Cu3 O16,['mp-752865']
3283,0.0,Sr10Al4Si6O,Sr10 Al4 Si6 O1,['mp-556496']
3284,0.0,ZrAlPt,Zr1 Al1 Pt1,"['mp-1080760', 'mp-567927']"
3285,0.0,TbYHg2,Tb1 Y1 Hg2,['mp-978911']
3286,0.0,NbCl4O2,Nb1 Cl4 O2,['mp-676877']
3287,0.0,Li3Cu4O4,Li3 Cu4 O4,['mp-753081']
3288,0.0,Ta4AlC3,Ta4 Al1 C3,"['mp-3803', 'mp-3802']"
3289,0.0,NdAl7Au3,Nd1 Al7 Au3,['mp-16622']
3290,0.0,Yb2MgSe4,Yb2 Mg1 Se4,"['mp-15804', 'mp-1232225']"
3291,0.0,RbVP2S7,Rb1 V1 P2 S7,['mp-9102']
3292,0.0,YbSmRh2,Yb1 Sm1 Rh2,['mp-865993']
3293,0.0,V3CrO10,V3 Cr1 O10,['mp-755604']
3294,0.0,ThAsSe,Th1 As1 Se1,['mp-1019357']
3295,0.0,Li3Mn2(PO4)3,Li3 Mn2 P3 O12,"['mp-26453', 'mp-780607', 'mp-773057', 'mp-757748', 'mp-758937', 'mp-32024', 'mp-26039', 'mp-26367', 'mp-31969', 'mp-758956', 'mp-850909', 'mp-863434', 'mp-26601', 'mp-26845', 'mp-867596']"
3296,0.0,Li3Co4TeO8,Li3 Co4 Te1 O8,['mp-756161']
3297,0.0,BaMn4O7,Ba1 Mn4 O7,['mvc-1335']
3298,0.0,FeOF,Fe1 O1 F1,"['mp-753238', 'mp-754831', 'mp-759697', 'mp-759497', 'mp-759427', 'mp-759262', 'mp-759561', 'mp-759880', 'mp-777319', 'mp-1178228', 'mp-762996', 'mp-1178210', 'mp-754879', 'mp-759562', 'mp-763436', 'mp-755912', 'mp-752804', 'mp-765134', 'mp-753333', 'mp-759478', 'mp-759546', 'mp-758500', 'mp-758773', 'mp-764747', 'mp-759248', 'mp-1178229', 'mp-1178245', 'mp-752995', 'mp-759283', 'mp-759222', 'mp-1178238', 'mp-759914', 'mp-759467', 'mp-754389', 'mp-752975', 'mp-758461', 'mp-754616', 'mp-758442', 'mp-1178215', 'mp-759247', 'mp-759595', 'mp-759503', 'mp-759113', 'mp-756807', 'mp-765085', 'mp-867793', 'mp-754527', 'mp-1178241', 'mp-763065', 'mp-764890', 'mp-758782', 'mp-759659', 'mp-1178244', 'mp-753145', 'mp-758560', 'mp-752880', 'mp-759193', 'mp-759660', 'mp-763029', 'mp-755359', 'mp-759490', 'mp-759563', 'mp-1178224', 'mp-752563', 'mp-764510', 'mp-759927', 'mp-759284', 'mp-759778', 'mp-759268', 'mp-759331', 'mp-754764', 'mp-759395', 'mp-758902', 'mp-753017', 'mp-754053', 'mp-758159', 'mp-758738', 'mp-759425', 'mp-752939', 'mp-759192', 'mp-759566', 'mp-763342', 'mp-759674', 'mp-759058', 'mp-759130', 'mp-759531', 'mp-675006', 'mp-757453', 'mp-758710', 'mp-758716', 'mp-752991', 'mp-759027', 'mp-759080', 'mp-759475', 'mp-759436', 'mp-759592', 'mp-763022', 'mp-752941', 'mp-764813', 'mp-759961', 'mp-755758', 'mp-755772', 'mp-759551', 'mp-754726', 'mp-752992', 'mp-759295', 'mp-759971', 'mp-764940', 'mp-753274', 'mp-759543', 'mp-752593', 'mp-758664', 'mp-758352']"
3299,0.0,CeSiI,Ce1 Si1 I1,['mp-29535']
3300,0.0,LuU2S3O2,Lu1 U2 S3 O2,['mp-1025410']
3301,0.0,ThBi2,Th1 Bi2,['mp-571335']
3302,0.0,MnGePd,Mn1 Ge1 Pd1,['mp-610972']
3303,0.0,BiPd,Bi1 Pd1,"['mp-569727', 'mp-1008488', 'mp-23206']"
3304,0.0,Li4NbNi3O8,Li4 Nb1 Ni3 O8,['mp-754424']
3305,0.0,GdSe2,Gd1 Se2,['mp-1018707']
3306,0.0,MgZn2,Mg1 Zn2,"['mp-1094439', 'mp-1094463', 'mp-1094500', 'mp-1094483', 'mp-567626', 'mp-1094460', 'mp-1124', 'mp-978269', 'mp-1094432', 'mp-1094191', 'mp-1094436', 'mp-1094504', 'mp-1094456', 'mp-1094461', 'mp-1094198', 'mp-1094492', 'mp-1094426']"
3307,0.0,DyAgGe,Dy1 Ag1 Ge1,"['mp-21045', 'mp-567574']"
3308,0.0,Sm2TlZn,Sm2 Tl1 Zn1,['mp-978815']
3309,0.0,VP4,V1 P4,['mp-8251']
3310,0.0,Zr3Al2,Zr3 Al2,['mp-13470']
3311,0.0,LuSi2Ni,Lu1 Si2 Ni1,['mp-973633']
3312,0.0,LiSiPd2,Li1 Si1 Pd2,['mp-864997']
3313,0.0,Ti9O8,Ti9 O8,['mp-32544']
3314,0.0,CePrO2,Ce1 Pr1 O2,"['mp-1178453', 'mp-755658']"
3315,0.0,UB4H16,U1 B4 H16,"['mp-27350', 'mp-707273']"
3316,0.0,LaMg3,La1 Mg3,"['mp-1094174', 'mp-1016227', 'mp-1098156', 'mp-1094169', 'mp-2306']"
3317,0.0,NiAsO3,Ni1 As1 O3,['mp-976763']
3318,0.0,EuIn2As2,Eu1 In2 As2,['mp-608777']
3319,0.0,Te4MoW3S4,Te4 Mo1 W3 S4,"['mp-1029139', 'mp-1028976', 'mp-1030153', 'mp-1028520', 'mp-1028812', 'mp-1029166', 'mp-1028932', 'mp-1029235', 'mp-1027169', 'mp-1028622', 'mp-1027172', 'mp-1026978']"
3320,0.0,LiCuO2,Li1 Cu1 O2,"['mp-754912', 'mp-759720', 'mp-9158', 'mp-996986', 'mp-996987', 'mp-25372', 'mp-753845', 'mp-773044']"
3321,0.0,ZrSb,Zr1 Sb1,"['mp-10638', 'mp-569671']"
3322,0.0,Cu2PHO5,Cu2 P1 H1 O5,['mp-510654']
3323,0.0,Ba2CaOsO6,Ba2 Ca1 Os1 O6,['mp-6739']
3324,0.0,Yb14Ti10O41,Yb14 Ti10 O41,['mp-676987']
3325,0.0,LuSi2Os2,Lu1 Si2 Os2,['mp-12101']
3326,0.0,K2RuCl6,K2 Ru1 Cl6,['mp-23471']
3327,0.0,SmPbAu,Sm1 Pb1 Au1,['mp-1019110']
3328,0.0,Yb2Zn3Ge3,Yb2 Zn3 Ge3,['mp-569434']
3329,0.0,Yb2BaO4,Yb2 Ba1 O4,"['mp-754383', 'mp-754422']"
3330,0.0,KBi2,K1 Bi2,['mp-23279']
3331,0.0,Ti10O11,Ti10 O11,['mp-684733']
3332,0.0,UCr4C4,U1 Cr4 C4,['mp-2971']
3333,0.0,Ta2TiN3,Ta2 Ti1 N3,['mp-1019270']
3334,0.0,BaTl(MoO3)2,Ba1 Tl1 Mo2 O6,['mvc-529']
3335,0.0,Rb2CrF6,Rb2 Cr1 F6,['mp-560562']
3336,0.0,Li4Mn5Ni3O16,Li4 Mn5 Ni3 O16,['mp-756534']
3337,0.0,Li7Ca8Nb12O40,Li7 Ca8 Nb12 O40,['mp-773078']
3338,0.0,UGa2,U1 Ga2,['mp-20632']
3339,0.0,Ca2MnAlO5,Ca2 Mn1 Al1 O5,"['mp-1247671', 'mp-18907']"
3340,0.0,YbSnRh,Yb1 Sn1 Rh1,['mp-11973']
3341,0.0,Er6MnBi2,Er6 Mn1 Bi2,['mp-23039']
3342,0.0,KScO3,K1 Sc1 O3,['mp-973960']
3343,0.0,Ti2MnFe,Ti2 Mn1 Fe1,['mp-861983']
3344,0.0,CoOF,Co1 O1 F1,"['mp-764777', 'mp-850935', 'mp-765680', 'mp-850208', 'mp-760931', 'mp-780732', 'mp-776976', 'mp-764080', 'mp-778833', 'mp-763931', 'mp-779089', 'mp-756219', 'mp-758859', 'mp-755325']"
3345,0.0,ZrGaPt,Zr1 Ga1 Pt1,"['mp-1080495', 'mp-601253']"
3346,0.0,DyCd2,Dy1 Cd2,['mp-11294']
3347,0.0,UGa5Ir,U1 Ga5 Ir1,['mp-623006']
3348,0.0,MnS,Mn1 S1,"['mp-2562', 'mp-1783', 'mp-556853', 'mp-2065']"
3349,0.0,Yb2SmS4,Yb2 Sm1 S4,['mp-675912']
3350,0.0,Ce2S2O,Ce2 S2 O1,['mp-755777']
3351,0.0,CeAl2Pt3,Ce1 Al2 Pt3,['mp-7225']
3352,0.0,LuAu,Lu1 Au1,['mp-11249']
3353,0.0,TeWCl9,Te1 W1 Cl9,['mp-669325']
3354,0.0,Fe9Co7,Fe9 Co7,['mp-601842']
3355,0.0,CrFe2Sb,Cr1 Fe2 Sb1,['mp-1008225']
3356,0.0,Rb15Hg16,Rb15 Hg16,['mp-581457']
3357,0.0,RbIn4,Rb1 In4,['mp-21477']
3358,0.0,KTi5Se8,K1 Ti5 Se8,['mp-976257']
3359,0.0,Rb6O,Rb6 O1,['mp-540855']
3360,0.0,Yb4Sb3,Yb4 Sb3,['mp-1295']
3361,0.0,Ti5ZnO7,Ti5 Zn1 O7,['mvc-2234']
3362,0.0,LuScRu2,Lu1 Sc1 Ru2,['mp-973433']
3363,0.0,Co7Re17O48,Co7 Re17 O48,['mp-698580']
3364,0.0,BaAg2,Ba1 Ag2,"['mp-1241', 'mp-1077322']"
3365,0.0,YbSi2Rh2,Yb1 Si2 Rh2,['mp-10626']
3366,0.0,HfC,Hf1 C1,"['mp-1096993', 'mp-21075', 'mp-1008832', 'mp-1001918', 'mp-1002124']"
3367,0.0,CaIn2Ir,Ca1 In2 Ir1,['mp-20846']
3368,0.0,Li4Ti5Cr3O16,Li4 Ti5 Cr3 O16,['mp-777464']
3369,0.0,CuMoO4,Cu1 Mo1 O4,"['mp-619545', 'mp-560888', 'mp-558040', 'mvc-10504', 'mp-1232333', 'mp-541991']"
3370,0.0,TiBr2,Ti1 Br2,['mp-27785']
3371,0.0,Mg2V9O13,Mg2 V9 O13,['mvc-2344']
3372,0.0,GdZnIn,Gd1 Zn1 In1,['mp-1018711']
3373,0.0,Mg3Ru2,Mg3 Ru2,['mp-625']
3374,0.0,NdScGe,Nd1 Sc1 Ge1,['mp-4854']
3375,0.0,Al7C3N3,Al7 C3 N3,['mp-569102']
3376,0.0,Sm3Sc,Sm3 Sc1,"['mp-978845', 'mp-972479']"
3377,0.0,LaGa3Pd2,La1 Ga3 Pd2,['mp-21201']
3378,0.0,TlTe,Tl1 Te1,"['mp-2048', 'mp-16223', 'mp-2081']"
3379,0.0,Mg5Tl2,Mg5 Tl2,['mp-570849']
3380,0.0,Li4Co3CuO8,Li4 Co3 Cu1 O8,['mp-753919']
3381,0.0,Ta4N5,Ta4 N5,['mp-8046']
3382,0.0,NdBRh3,Nd1 B1 Rh3,['mp-3591']
3383,0.0,GeW6O18,Ge1 W6 O18,['mp-694895']
3384,0.0,ZrPd2,Zr1 Pd2,['mp-1018102']
3385,0.0,YSiNi,Y1 Si1 Ni1,['mp-20557']
3386,0.0,NaCeS2,Na1 Ce1 S2,"['mp-1221067', 'mp-1221073', 'mp-36536']"
3387,0.0,CrCoGe,Cr1 Co1 Ge1,['mp-10394']
3388,0.0,La16Mn15O48,La16 Mn15 O48,"['mp-863425', 'mp-758301', 'mp-772540']"
3389,0.0,Sr2YBi2O7,Sr2 Y1 Bi2 O7,['mp-1244820']
3390,0.0,Pm2NiRh,Pm2 Ni1 Rh1,['mp-863714']
3391,0.0,SmNiAs,Sm1 Ni1 As1,['mp-16734']
3392,0.0,Pr5Si4,Pr5 Si4,['mp-542465']
3393,0.0,Zr5SiSb3,Zr5 Si1 Sb3,['mp-542816']
3394,0.0,CsTiF4,Cs1 Ti1 F4,['mp-504701']
3395,0.0,ScCoGe2,Sc1 Co1 Ge2,['mp-21739']
3396,0.0,Te2Mo3Se4,Te2 Mo3 Se4,"['mp-1025876', 'mp-1025728']"
3397,0.0,Dy7In(CoGe3)4,Dy7 In1 Co4 Ge12,['mp-641778']
3398,0.0,EuTiClO3,Eu1 Ti1 Cl1 O3,['mp-555860']
3399,0.0,Mn5As4,Mn5 As4,['mp-28832']
3400,0.0,Ti20Sb9Se3,Ti20 Sb9 Se3,['mp-530251']
3401,0.0,Tl9SbSe6,Tl9 Sb1 Se6,"['mp-532270', 'mp-676274']"
3402,0.0,SrZr2Nb,Sr1 Zr2 Nb1,['mp-631361']
3403,0.0,TiReN3,Ti1 Re1 N3,['mp-996940']
3404,0.0,Li8IrO6,Li8 Ir1 O6,['mp-8469']
3405,0.0,Re2W3C,Re2 W3 C1,['mp-16877']
3406,0.0,YbBaSn3,Yb1 Ba1 Sn3,['mp-571479']
3407,0.0,YbIn4Rh,Yb1 In4 Rh1,['mp-672274']
3408,0.0,LiGaPd2,Li1 Ga1 Pd2,['mp-867198']
3409,0.0,CeMn2Si2,Ce1 Mn2 Si2,['mp-2965']
3410,0.0,Tm2Ga10Os3,Tm2 Ga10 Os3,['mp-647243']
3411,0.0,YbZnPt,Yb1 Zn1 Pt1,['mp-13026']
3412,0.0,YbNdAg2,Yb1 Nd1 Ag2,['mp-865426']
3413,0.0,PrZn,Pr1 Zn1,['mp-460']
3414,0.0,ZrB2,Zr1 B2,['mp-1472']
3415,0.0,YbAg2,Yb1 Ag2,"['mp-1008617', 'mp-568559']"
3416,0.0,Hg3As,Hg3 As1,"['mp-973599', 'mp-973071']"