,Eg (eV),Comp,composition,mp_ids
2283,0.33,PbSe0.5S0.5,Pb1 Se0.5 S0.5,0
2284,0.32,SmTe,Sm1 Te1,"['mp-342', 'mp-10652']"
2285,0.32,Pb0.9Se0.9Ge0.1S0.1,Pb0.9 Se0.9 Ge0.1 S0.1,0
2286,0.32,Pb0.93TeIn0.07,Pb0.93 Te1 In0.07,0
2287,0.32,FeP4,Fe1 P4,"['mp-570553', 'mp-27164', 'mp-568328']"
2288,0.32,Pb0.85Se0.85Ge0.15Te0.15,Pb0.85 Se0.85 Ge0.15 Te0.15,0
2289,0.32,Pb0.99Te0.99Ge0.01S0.01,Pb0.99 Te0.99 Ge0.01 S0.01,0
2290,0.32,NaB15,Na1 B15,['mp-2315']
2291,0.32,Pb0.99Ge0.01Te,Pb0.99 Ge0.01 Te1,0
2292,0.32,Pb0.999Se0.999Sn0.001Se0.001,Pb0.999 Se1 Sn0.001,0
2293,0.32,Mg2Sn,Mg2 Sn1,"['mp-1094543', 'mp-1094525', 'mp-1094228', 'mp-1018795', 'mp-1094535', 'mp-1094529', 'mp-570543', 'mp-1094192', 'mp-1094518', 'mp-1094196', 'mp-1094209', 'mp-1094211', 'mp-2343', 'mp-1094197', 'mp-1094221', 'mp-1094242', 'mp-1094517', 'mp-1094236']"
2294,0.31,Eu4Te7,Eu4 Te7,0
2295,0.31,Pb0.99Sn0.01Se,Pb0.99 Se1 Sn0.01,0
2296,0.31,MnSb2Se4,Mn1 Sb2 Se4,['mp-1210700']
2297,0.31,Ba8Ga10Si36,Ba8 Ga10 Si36,0
2298,0.3,Cs6Na2Zn4Ge42,Cs6 Na2 Zn4 Ge42,0
2299,0.3,Pb0.97Sn0.03Te,Pb0.97 Sn0.03 Te1,0
2300,0.3,GeTe2,Ge1 Te2,0
2301,0.3,PbTe0.99Se0.01,Pb1 Te0.99 Se0.01,0
2302,0.3,NiP2,Ni1 P2,"['mp-486', 'mp-22619']"
2303,0.3,SnTe,Sn1 Te1,"['mp-1883', 'mp-1481', 'mp-16364']"
2304,0.3,VO,V1 O1,"['mp-1287184', 'mp-19184', 'mp-1273331', 'mp-714885']"
2305,0.3,Pb0.999TeGa0.001,Pb0.999 Te1 Ga0.001,0
2306,0.3,Ce2Sn3Se9,Ce2 Sn3 Se9,0
2307,0.3,CdSnAs2,Cd1 Sn1 As2,"['mp-676728', 'mp-1226725', 'mp-1226747', 'mp-3829']"
2308,0.3,Cd3Sb2,Cd3 Sb2,0
2309,0.3,Pb0.999TeIn0.001,Pb0.999 Te1 In0.001,0
2310,0.3,RuSb2,Ru1 Sb2,['mp-20928']
2311,0.3,Pb0.9Ge0.1Se,Pb0.9 Ge0.1 Se1,0
2312,0.3,In0.99As0.99Ga0.01P0.01,In0.99 As0.99 Ga0.01 P0.01,0
2313,0.3,Bi2Te2Se,Bi2 Te2 Se1,['mp-29666']
2314,0.3,Pb0.999TeTl0.001,Pb0.999 Te1 Tl0.001,0
2315,0.3,Cu3ScSe3,Cu3 Sc1 Se3,['mp-1219527']
2316,0.3,TiC0.9,Ti1 C0.9,0
2317,0.3,AgFeTe2,Ag1 Fe1 Te2,"['mp-1224997', 'mp-29659', 'mp-685618']"
2318,0.3,TlPTe,Tl1 P1 Te1,0
2319,0.3,OsTe2,Os1 Te2,['mp-2142']
2320,0.29,Ag0.1Cd0.8In2.1Te4,Ag0.1 Cd0.8 In2.1 Te4,0
2321,0.29,Pb0.95Se0.95Ge0.05S0.05,Pb0.95 Se0.95 Ge0.05 S0.05,0
2322,0.29,Bi2Te2.1Se0.9,Bi2 Te2.1 Se0.9,0
2323,0.29,Bi2Te1.5Se1.5,Bi2 Te1.5 Se1.5,0
2324,0.29,Pb7Bi4Se13,Pb7 Bi4 Se13,['mp-1190436']
2325,0.29,Hg0.01Cd0.99Se,Hg0.01 Cd0.99 Se1,0
2326,0.29,PbTe0.5Se0.5,Pb1 Te0.5 Se0.5,0
2327,0.28,Pb0.94Se0.94Ge0.06Te0.06,Pb0.94 Se0.94 Ge0.06 Te0.06,0
2328,0.28,NbIrSn,Nb1 Ir1 Sn1,0
2329,0.28,Pb0.97Se0.97Ge0.03S0.03,Pb0.97 Se0.97 Ge0.03 S0.03,0
2330,0.28,Hg0.65Cd0.35Te,Hg0.65 Cd0.35 Te1,0
2331,0.28,Bi0.2Te3Sb1.8,Bi0.2 Te3 Sb1.8,0
2332,0.28,Bi2Te1.2Se1.8,Bi2 Te1.2 Se1.8,0
2333,0.28,Pb0.98Se0.98Bi0.04Te0.06,Pb0.98 Se0.98 Bi0.04 Te0.06,0
2334,0.28,Bi2Te0.9Se2.1,Bi2 Te0.9 Se2.1,0
2335,0.28,Pb0.94Sn0.06Te,Pb0.94 Sn0.06 Te1,0
2336,0.28,MnP4,Mn1 P4,"['mp-755453', 'mp-569522', 'mp-487', 'mp-769096', 'mp-571193']"
2337,0.28,Bi2Te0.6Se2.4,Bi2 Te0.6 Se2.4,0
2338,0.28,Pb0.95Ge0.05Se,Pb0.95 Ge0.05 Se1,0
2339,0.28,CoPbO3,Pb1 Co1 O3,"['mp-770488', 'mp-1178420', 'mp-755569']"
2340,0.27,PbSe0.9S0.1,Pb1 Se0.9 S0.1,0
2341,0.27,YPdSb,Y1 Pd1 Sb1,['mp-1215892']
2342,0.27,InSb0.9As0.1,In1 Sb0.9 As0.1,0
2343,0.27,Pb0.99Ge0.01Se,Pb0.99 Ge0.01 Se1,0
2344,0.27,Bi2Te0.03Se2.97,Bi2 Te0.03 Se2.97,0
2345,0.26,Cu3HoTe3,Cu3 Ho1 Te3,['mp-1224142']
2346,0.26,PbSe0.95S0.05,Pb1 Se0.95 S0.05,0
2347,0.26,Pb0.01Sn0.99Te,Pb0.01 Sn0.99 Te1,0
2348,0.26,EuIr4In2Ge4,Eu1 Ir4 In2 Ge4,['mp-1095411']
2349,0.26,PbTe0.05Se0.95,Pb1 Te0.05 Se0.95,0
2350,0.26,InSnAsSe,In1 Sn1 As1 Se1,0
2351,0.26,PbSe0.99S0.01,Pb1 Se0.99 S0.01,0
2352,0.26,PbTe0.01Se0.99,Pb1 Te0.01 Se0.99,0
2353,0.25,Pb0.9Se0.9Bi0.2Te0.3,Pb0.9 Se0.9 Bi0.2 Te0.3,0
2354,0.25,FePS,Fe1 P1 S1,['mp-1101971']
2355,0.25,Bi2Te2.4Se0.6,Bi2 Te2.4 Se0.6,0
2356,0.25,RuTe2,Ru1 Te2,"['mp-1848', 'mp-267']"
2357,0.25,Bi2Te3,Bi2 Te3,"['mp-34202', 'mp-568390']"
2358,0.25,SrIr4In2Ge4,Sr1 Ir4 In2 Ge4,0
2359,0.24,Pb0.9Sn0.1Se,Pb0.9 Se1 Sn0.1,0
2360,0.24,Cd3As2,Cd3 As2,"['mp-1199496', 'mp-1372', 'mp-1201202', 'mp-10762', 'mp-570634']"
2361,0.24,Cu3ErTe3,Cu3 Er1 Te3,"['mp-1225130', 'mp-640885']"
2362,0.24,HgSc,Hg1 Sc1,['mp-11471']
2363,0.24,Bi2Te0.3Se2.7,Bi2 Te0.3 Se2.7,0
2364,0.23,NiTe,Ni1 Te1,"['mp-10264', 'mp-203']"
2365,0.23,PAs,P1 As1,['mp-1228795']
2366,0.23,CrO2,Cr1 O2,"['mp-19177', 'mp-714929', 'mvc-3500', 'mvc-6394', 'mvc-5485', 'mvc-5834', 'mvc-11581', 'mp-21395', 'mp-1181747', 'mvc-6931', 'mp-1009555', 'mp-1102170', 'mvc-10873', 'mp-25302', 'mvc-10090', 'mvc-12040', 'mp-1102412', 'mvc-5295', 'mvc-14589', 'mvc-11544', 'mvc-9788', 'mp-1281333']"
2367,0.23,Pb0.99Sn0.01Te,Pb0.99 Sn0.01 Te1,0
2368,0.23,AgFeSe2,Ag1 Fe1 Se2,['mp-1096959']
2369,0.23,ScPdSb,Sc1 Pd1 Sb1,['mp-569779']
2370,0.23,BaZn2As2,Ba1 Zn2 As2,"['mp-570198', 'mp-7427']"
2371,0.23,Pb0.99Se0.99Ge0.01Te0.01,Pb0.99 Se0.99 Ge0.01 Te0.01,0
2372,0.23,Cu3SmTe3,Cu3 Sm1 Te3,['mp-1219189']
2373,0.23,Eu1.83Ta15O32,Eu1.83 Ta15 O32,0
2374,0.22,Cs6.40Na1.60Ga8Ge38,Cs6.4 Na1.6 Ga8 Ge38,0
2375,0.22,PbTe,Pb1 Te1,"['mp-20943', 'mp-19717', 'mp-1079574', 'mp-685022']"
2376,0.22,InSb,In1 Sb1,"['mp-1223633', 'mp-10149', 'mp-20012', 'mp-1007661', 'mp-10148', 'mp-20253', 'mp-1223637', 'mp-569020', 'mp-19744', 'mp-684597', 'mp-21210']"
2377,0.22,Pb0.8Se0.8Bi0.4Te0.6,Pb0.8 Se0.8 Bi0.4 Te0.6,0
2378,0.22,Pb0.85Sn0.15Se,Pb0.85 Se1 Sn0.15,0
2379,0.22,Pb0.94Sn0.06Se,Pb0.94 Se1 Sn0.06,0
2380,0.22,YbSb4Te7,Yb1 Sb4 Te7,0
2381,0.22,Pb0.92Se0.92Sn0.08Te0.08,Pb0.92 Se0.92 Sn0.08 Te0.08,0
2382,0.21,Bi0.4Te3Sb1.6,Bi0.4 Te3 Sb1.6,0
2383,0.21,InSb0.8As0.2,In1 Sb0.8 As0.2,0
2384,0.21,Pb0.97Se0.97Sn0.03Se0.03,Pb0.97 Se1 Sn0.03,0
2385,0.21,Hg0.77Cd0.23Te,Hg0.77 Cd0.23 Te1,0
2386,0.21,OsSb2,Os1 Sb2,['mp-2695']
2387,0.21,Bi2Te2.7Se0.3,Bi2 Te2.7 Se0.3,0
2388,0.21,Hg0.72Cd0.28Te,Hg0.72 Cd0.28 Te1,0
2389,0.2,CoSb2,Co1 Sb2,"['mp-9835', 'mp-755']"
2390,0.2,CoTe1.88,Co1 Te1.88,0
2391,0.2,Bi2Te0.45Se2.55,Bi2 Te0.45 Se2.55,0
2392,0.2,PdSe,Pd1 Se1,"['mp-21165', 'mp-571383']"
2393,0.2,Cu3YbSe3,Cu3 Yb1 Se3,['mp-1215810']
2394,0.2,InSn2As2Se,In1 Sn2 As2 Se1,0
2395,0.2,Bi0.6Te3Sb1.4,Bi0.6 Te3 Sb1.4,0
2396,0.2,CoAsSe,Co1 As1 Se1,"['mp-505511', 'mp-1226008', 'mp-1226036']"
2397,0.2,Zr3O,Zr3 O1,"['mp-561418', 'mp-14024', 'mp-1017']"
2398,0.2,Cd3Bi2,Cd3 Bi2,0
2399,0.2,RbHgSbTe3,Rb1 Hg1 Sb1 Te3,['mp-1219595']
2400,0.2,Cu3DySe3,Cu3 Dy1 Se3,['mp-1225403']
2401,0.19,Ag0.4Cd0.5In2.2Te4,Ag0.4 Cd0.5 In2.2 Te4,0
2402,0.19,Sb2Te3,Sb2 Te3,"['mp-1080789', 'mp-1172848', 'mp-1201', 'mp-1078904', 'mp-1078331']"
2403,0.19,LaSi2,La1 Si2,['mp-2062']
2404,0.19,Pb0.95Sn0.05Se,Pb0.95 Se1 Sn0.05,0
2405,0.19,Bi1Te3Sb1,Bi1 Te3 Sb1,['mp-1227340']
2406,0.18,Ag2PdO2,Ag2 Pd1 O2,['mp-5495']
2407,0.18,LiBiS2,Li1 Bi1 S2,"['mp-33526', 'mp-1222404', 'mp-753506']"
2408,0.18,Pb0.999Sn0.001Te,Pb0.999 Sn0.001 Te1,0
2409,0.18,Pb0.85Se0.85Sn0.15Te0.15,Pb0.85 Se0.85 Sn0.15 Te0.15,0
2410,0.18,YNiSb,Y1 Ni1 Sb1,['mp-11520']
2411,0.18,Zr6O,Zr6 O1,0
2412,0.18,HgTe,Hg1 Te1,"['mp-1223902', 'mp-1811', 'mp-1507', 'mp-13141', 'mp-1071269', 'mp-2730', 'mp-358']"
2413,0.18,AgSO4,Ag1 S1 O4,"['mp-1006372', 'mp-1196324', 'mp-1183033']"
2414,0.17,InSb0.01As0.99,In1 Sb0.01 As0.99,0
2415,0.17,Bi1.4Te3Sb0.6,Bi1.4 Te3 Sb0.6,0
2416,0.17,PbSe,Pb1 Se1,"['mp-1063670', 'mp-22009', 'mp-1079172', 'mp-21214', 'mp-2201']"
2417,0.17,CrTe2,Cr1 Te2,['mp-685055']
2418,0.16,YPtSb,Y1 Pt1 Sb1,['mp-4964']
2419,0.16,CuFeTe2,Cu1 Fe1 Te2,['mp-1224961']
2420,0.16,InSb0.7As0.3,In1 Sb0.7 As0.3,0
2421,0.16,CrSb2,Cr1 Sb2,"['mp-22498', 'mp-2666']"
2422,0.16,CuFeSe2,Cu1 Fe1 Se2,['mp-505244']
2423,0.16,Cu3HoSe3,Cu3 Ho1 Se3,0
2424,0.16,Bi1.6Te3Sb0.4,Bi1.6 Te3 Sb0.4,0
2425,0.16,Cu3TbSe3,Cu3 Tb1 Se3,['mp-1217841']
2426,0.16,Pb0.9Sn0.1Te,Pb0.9 Sn0.1 Te1,0
2428,0.15,Pb0.83Sn0.17Te,Pb0.83 Sn0.17 Te1,0
2429,0.15,Mg2Pb,Mg2 Pb1,"['mp-20724', 'mp-1102915']"
2430,0.15,Bi2Te2.97Se0.03,Bi2 Te2.97 Se0.03,0
2431,0.15,PdPSe,Pd1 P1 Se1,['mp-3123']
2432,0.15,Bi1.8Te3Sb0.2,Bi1.8 Te3 Sb0.2,0
2434,0.14,Cu3TmTe3,Cu3 Tm1 Te3,"['mp-1216875', 'mp-640889']"
2435,0.14,In5Se6,In5 Se6,0
2436,0.14,Pb0.8Se0.8Sn0.2Te0.2,Pb0.8 Se0.8 Sn0.2 Te0.2,0
2438,0.14,Bi1.98Te3Sb0.02,Bi1.98 Te3 Sb0.02,0
2439,0.14,Cu3GdSe3,Cu3 Gd1 Se3,0
2440,0.14,InSb0.1As0.9,In1 Sb0.1 As0.9,0
2441,0.13,LiSbTe2,Li1 Sb1 Te2,['mp-1222285']
2442,0.13,Pb0.85Sn0.15Te,Pb0.85 Sn0.15 Te1,0
2443,0.13,AgPbBiSe3,Ag1 Pb1 Bi1 Se3,0
2444,0.13,Pb0.92Sn0.08Te,Pb0.92 Sn0.08 Te1,0
2445,0.13,InSb0.6As0.4,In1 Sb0.6 As0.4,0
2446,0.13,Ba1.88Ta15O32,Ba1.88 Ta15 O32,0
2447,0.12,InSb0.2As0.8,In1 Sb0.2 As0.8,0
2448,0.12,ReSi2,Re1 Si2,['mp-12605']
2449,0.12,TlBiTe2,Tl1 Bi1 Te2,"['mp-27438', 'mp-1216532']"
2450,0.12,CuPbBiS3,Cu1 Pb1 Bi1 S3,['mp-624191']
2451,0.12,Pb0.72Se0.72Sn0.28Te0.28,Pb0.72 Se0.72 Sn0.28 Te0.28,0
2452,0.12,VO2,V1 O2,"['mvc-13110', 'mp-715517', 'mp-634430', 'mp-1245012', 'mp-1314858', 'mvc-11573', 'mp-547074', 'mvc-10109', 'mvc-11089', 'mp-1094031', 'mp-1102963', 'mp-1287710', 'mp-636746', 'mp-777469', 'mp-1277428', 'mp-1245047', 'mp-19094', 'mvc-12615', 'mp-849511', 'mp-777479', 'mp-1245059', 'mp-559445', 'mp-25283', 'mp-1190609', 'mp-1297038', 'mp-541404', 'mp-1021522', 'mp-566801', 'mp-1100908', 'mp-1293568', 'mp-714944', 'mvc-11154', 'mp-25199', 'mvc-13223', 'mp-20593', 'mp-20974', 'mvc-5548', 'mp-1297307', 'mp-715553', 'mp-1178787', 'mp-1297456', 'mp-755394', 'mp-1272932', 'mvc-5310', 'mp-1281814', 'mp-714960', 'mvc-6393', 'mp-1285965', 'mp-1315852', 'mp-714931', 'mvc-11624', 'mp-715035', 'mp-1273390', 'mp-1292869', 'mp-755411']"
2454,0.11,InSb0.3As0.7,In1 Sb0.3 As0.7,0
2455,0.11,ScNiSb,Sc1 Ni1 Sb1,['mp-3432']
2456,0.11,CoSbS,Co1 Sb1 S1,"['mp-4962', 'mp-1191202', 'mp-1102443', 'mp-5881']"
2457,0.11,Pb0.8Sn0.2Te,Pb0.8 Sn0.2 Te1,0
2458,0.11,Zn3Sb2,Zn3 Sb2,0
2459,0.1,AgTlTe2,Ag1 Tl1 Te2,['mp-10006']
2460,0.1,InSb0.4As0.6,In1 Sb0.4 As0.6,0
2461,0.1,InSb0.5As0.5,In1 Sb0.5 As0.5,0
2462,0.1,GaBi,Ga1 Bi1,['mp-1018126']
2463,0.1,PtSe2,Pt1 Se2,['mp-1115']
2464,0.09,Pb0.65Se0.65Sn0.35Te0.35,Pb0.65 Se0.65 Sn0.35 Te0.35,0
2465,0.08,PtSb2,Pt1 Sb2,['mp-562']
2466,0.08,Pb0.8Sn0.2Se,Pb0.8 Sn0.2 Se1,0
2468,0.08,Hg0.8Zn0.2Te,Hg0.8 Zn0.2 Te1,0
2469,0.08,Pb0.93Sn0.07Se,Pb0.93 Sn0.07 Se1,0
2470,0.07,HgSe,Hg1 Se1,"['mp-1018722', 'mp-820', 'mp-957']"
2471,0.07,Ag2GeTe3,Ag2 Ge1 Te3,0
2472,0.07,CuPbBiSe3,Cu1 Pb1 Bi1 Se3,0
2473,0.06,Hg0.796Cd0.204Te,Hg0.796 Cd0.204 Te1,0
2474,0.06,Pb0.92Sn0.08Se,Pb0.92 Sn0.08 Se1,0
2475,0.05,OsSbTe,Os1 Sb1 Te1,['mp-1103213']
2476,0.05,Sr8Ga16Ge30,Sr8 Ga16 Ge30,0
2477,0.04,Pb0.83Sn0.17Se,Pb0.83 Sn0.17 Se1,0
2478,0.04,Pb0.77Sn0.23Te,Pb0.77 Sn0.23 Te1,0
2479,0.04,Pb0.75Sn0.25Te,Pb0.75 Sn0.25 Te1,0
2480,0.04,Pb0.75Sn0.25Se,Pb0.75 Sn0.25 Se1,0
2481,0.02,Pb0.87Sn0.13Se,Pb0.87 Sn0.13 Se1,0
2482,0.02,BiSb0.15,Bi1 Sb0.15,0
2483,0.0,PmLi2Ge,Pm1 Li2 Ge1,['mp-983425']
2484,0.0,Mn2VSi,Mn2 V1 Si1,['mp-865026']
2485,0.0,Eu2TeO2,Eu2 Te1 O2,['mp-19897']
2486,0.0,Sb4Pb4S11,Sb4 Pb4 S11,['mp-621960']
2487,0.0,In3Sb,In3 Sb1,['mp-1021668']
2488,0.0,EuClO,Eu1 Cl1 O1,['mp-542757']
2489,0.0,Li3Mn4O8,Li3 Mn4 O8,"['mp-1080207', 'mp-1312652', 'mp-754894', 'mp-1177617', 'mp-765459', 'mp-1177674', 'mp-1303221', 'mp-753674', 'mp-1003769', 'mp-1291742', 'mp-1097905', 'mp-753028', 'mp-1080219', 'mp-1097902']"
2490,0.0,ScZnPt2,Sc1 Zn1 Pt2,['mp-867768']
2491,0.0,Ni3SnN,Ni3 Sn1 N1,['mp-1017632']
2492,0.0,Sr3ScNiO6,Sr3 Sc1 Ni1 O6,['mp-17557']
2493,0.0,La4Co3O10,La4 Co3 O10,"['mp-1203869', 'mp-19196']"
2494,0.0,ErCr2Si2,Er1 Cr2 Si2,['mp-12082']
2495,0.0,Zr2Ni12P7,Zr2 Ni12 P7,['mp-18648']
2496,0.0,Ca2ZnRh,Ca2 Zn1 Rh1,['mp-867854']
2497,0.0,YNi2P2,Y1 Ni2 P2,['mp-568940']
2498,0.0,NdNiC2,Nd1 Ni1 C2,['mp-5383']
2499,0.0,SnPt3C,Sn1 Pt3 C1,['mp-20446']
2500,0.0,CeAlO3,Ce1 Al1 O3,"['mp-5323', 'mp-3408', 'mp-776167', 'mp-19843', 'mp-4096']"
2501,0.0,SrIn2Rh,Sr1 In2 Rh1,['mp-542537']
2502,0.0,Rb2Na2IrO4,Rb2 Na2 Ir1 O4,['mp-555091']
2503,0.0,Ta2MoOs,Ta2 Mo1 Os1,['mp-864770']
2504,0.0,Y3Fe29,Y3 Fe29,['mp-13412']
2505,0.0,Tb3Ni13B2,Tb3 Ni13 B2,['mp-541883']
2506,0.0,CsRbP,Cs1 Rb1 P1,['mp-1009544']
2507,0.0,SrSnP,Sr1 Sn1 P1,['mp-8539']
2508,0.0,ErLu3,Er1 Lu3,['mp-985437']
2509,0.0,Gd2Zn6Ge3,Gd2 Zn6 Ge3,['mp-582406']
2510,0.0,ErRe2O8,Er1 Re2 O8,['mp-755194']
2511,0.0,LiCu5P3O13,Li1 Cu5 P3 O13,['mp-26795']
2512,0.0,Cr2CuS4,Cr2 Cu1 S4,"['mp-1238791', 'mp-1239195', 'mp-1238867', 'mp-22803', 'mp-1238841']"
2513,0.0,VIr3,V1 Ir3,"['mp-865496', 'mp-1082']"
2514,0.0,MgSi7Ir3,Mg1 Si7 Ir3,['mp-13241']
2515,0.0,MnSb3(PO4)6,Mn1 Sb3 P6 O24,['mp-774636']
2516,0.0,SmAlCu,Sm1 Al1 Cu1,"['mp-979972', 'mp-1219108']"
2517,0.0,ErSnAu,Er1 Sn1 Au1,"['mp-5640', 'mp-13303']"
2518,0.0,Zr3Si6Cu4,Zr3 Si6 Cu4,['mp-27961']
2519,0.0,Yb3Sn13Rh4,Yb3 Sn13 Rh4,['mp-3046']
2520,0.0,Li5Fe6(BO3)6,Li5 Fe6 B6 O18,"['mp-766512', 'mp-766637']"
2521,0.0,DyB2Rh2C,Dy1 B2 Rh2 C1,['mp-571041']
2522,0.0,YbDyPd2,Yb1 Dy1 Pd2,['mp-980384']
2523,0.0,YbCuGe,Yb1 Cu1 Ge1,"['mp-13306', 'mp-567768', 'mp-5111', 'mp-1215641']"
2524,0.0,Ba3YIr2O9,Ba3 Y1 Ir2 O9,"['mp-1205382', 'mp-540739', 'mp-540691']"
2525,0.0,YFe2Si2,Y1 Fe2 Si2,['mp-5288']
2526,0.0,SmAs2Au,Sm1 As2 Au1,"['mp-979001', 'mp-978809', 'mp-1179432', 'mp-1106039']"
2527,0.0,Li4MgNi3O8,Li4 Mg1 Ni3 O8,"['mp-1282789', 'mp-756312', 'mp-1280637', 'mp-1290742']"
2528,0.0,Cu18S11,Cu18 S11,['mp-684898']
2529,0.0,GdNiO3,Gd1 Ni1 O3,['mp-505604']
2530,0.0,EuScO3,Eu1 Sc1 O3,['mp-22487']
2531,0.0,LaCdAg2,La1 Cd1 Ag2,['mp-867225']
2532,0.0,VPt2,V1 Pt2,['mp-12108']
2533,0.0,CeSi2Ni,Ce1 Si2 Ni1,['mp-15653']
2534,0.0,LiMn(PO4)2,Li1 Mn1 P2 O8,"['mp-753895', 'mp-753867', 'mp-867825', 'mp-754179']"
2535,0.0,Nd3In,Nd3 In1,"['mp-1186302', 'mp-21483']"
2536,0.0,Gd3Co11B4,Gd3 Co11 B4,['mp-605854']
2537,0.0,GaTc2W,Ga1 Tc2 W1,['mp-865746']
2538,0.0,Ca5Sb3,Ca5 Sb3,"['mp-12467', 'mp-17564']"
2539,0.0,Cr2NiS4,Cr2 Ni1 S4,['mp-27512']
2540,0.0,Li4Mn5Nb3O16,Li4 Mn5 Nb3 O16,['mp-772148']
2541,0.0,CeAsSe,Ce1 As1 Se1,['mp-607004']
2542,0.0,CoGe,Co1 Ge1,"['mp-21237', 'mp-10692']"
2543,0.0,Co2O3,Co2 O3,['mvc-852']
2544,0.0,InAu3,In1 Au3,"['mp-1223816', 'mp-569683']"
2545,0.0,Ce3Pd5,Ce3 Pd5,['mp-1025404']
2546,0.0,HfAsRh,Hf1 As1 Rh1,['mp-961719']
2547,0.0,Lu2AgAu,Lu2 Ag1 Au1,['mp-865445']
2548,0.0,NaFe2O3,Na1 Fe2 O3,"['mp-18728', 'mp-675397']"
2549,0.0,Dy4Sb3,Dy4 Sb3,['mp-1927']
2550,0.0,NiCO4,Ni1 C1 O4,['mp-752591']
2551,0.0,BeGaO3,Be1 Ga1 O3,['mp-984722']
2552,0.0,LiHoAu2,Li1 Ho1 Au2,['mp-862722']
2553,0.0,Li2Co4O7F,Li2 Co4 O7 F1,['mp-780622']
2554,0.0,Tb2SbO2,Tb2 Sb1 O2,['mp-755713']
2555,0.0,YbSiCu,Yb1 Si1 Cu1,['mp-8124']
2556,0.0,Li7Ti16O32,Li7 Ti16 O32,"['mp-766834', 'mp-530141']"
2557,0.0,NdAl8Co2,Nd1 Al8 Co2,['mp-569832']
2558,0.0,TmThRu2,Tm1 Th1 Ru2,['mp-980648']
2559,0.0,Cs3V2Cl9,Cs3 V2 Cl9,['mp-541084']
2560,0.0,Li3Cr(NiO2)4,Li3 Cr1 Ni4 O8,['mp-756352']
2561,0.0,Mn3PtN,Mn3 Pt1 N1,['mp-7070']
2562,0.0,Pd3Pb2S2,Pd3 Pb2 S2,"['mp-21863', 'mp-554993']"
2563,0.0,Cr3P,Cr3 P1,['mp-7806']
2564,0.0,LaReB,La1 Re1 B1,['mp-631508']
2565,0.0,BRh2,B1 Rh2,['mp-21502']
2566,0.0,Ti2NiSe4,Ti2 Ni1 Se4,['mp-1025281']
2567,0.0,TmLuPd2,Tm1 Lu1 Pd2,['mp-972410']
2568,0.0,NdPt,Nd1 Pt1,"['mp-1080485', 'mp-570934']"
2569,0.0,Pr3Cd,Pr3 Cd1,['mp-975641']
2570,0.0,YRe4Si2,Y1 Re4 Si2,['mp-9906']
2571,0.0,CrIrO6,Cr1 Ir1 O6,['mvc-5808']
2572,0.0,NdO2,Nd1 O2,"['mp-31049', 'mp-754317', 'mp-754125', 'mp-1077718', 'mp-1101458', 'mp-755820']"
2573,0.0,EuGe3Pt,Eu1 Ge3 Pt1,['mp-19763']
2574,0.0,Zr5Al3,Zr5 Al3,"['mp-16724', 'mp-2044']"
2575,0.0,Li4Mn5NbO12,Li4 Mn5 Nb1 O12,['mp-756259']
2576,0.0,Si4Cu15,Si4 Cu15,['mp-14266']
2577,0.0,Sm2TlHg,Sm2 Tl1 Hg1,['mp-978807']
2578,0.0,Gd3Al7Ag2,Gd3 Al7 Ag2,['mp-637182']
2579,0.0,PmLi2Al,Pm1 Li2 Al1,['mp-862929']
2580,0.0,BaIn2Ir,Ba1 In2 Ir1,['mp-22780']
2581,0.0,KUCuSe3,K1 U1 Cu1 Se3,['mp-582421']
2582,0.0,La20Cu9O40,La20 Cu9 O40,['mp-849992']
2583,0.0,Ce2Cu(NO)2,Ce2 Cu1 N2 O2,"['mp-1022723', 'mp-1147587']"
2584,0.0,Ho4C7,Ho4 C7,"['mp-1154', 'mp-15177']"
2585,0.0,Cr2P3O11,Cr2 P3 O11,['mp-25818']
2586,0.0,SmB2Os2,Sm1 B2 Os2,['mp-978678']
2587,0.0,Li4Fe7(OF7)2,Li4 Fe7 O2 F14,"['mp-759285', 'mp-764476', 'mp-757088']"
2588,0.0,Sr5Cd2Sb5F,Sr5 Cd2 Sb5 F1,['mp-867155']
2589,0.0,Sc2CuRu,Sc2 Cu1 Ru1,['mp-862338']
2590,0.0,CeSi2Pd2,Ce1 Si2 Pd2,['mp-3826']
2591,0.0,HgOsPb2,Hg1 Os1 Pb2,['mp-631323']
2592,0.0,MnGeRh2,Mn1 Ge1 Rh2,['mp-4664']
2593,0.0,YbCdHg2,Yb1 Cd1 Hg2,['mp-865742']
2594,0.0,CeP2Pt4,Ce1 P2 Pt4,['mp-607725']
2595,0.0,LiNi4O8,Li1 Ni4 O8,['mvc-16813']
2596,0.0,Rb2SCl6F,Rb2 S1 Cl6 F1,['mp-989388']
2597,0.0,Li2InAg,Li2 In1 Ag1,['mp-30344']
2598,0.0,CsVP2S7,Cs1 V1 P2 S7,['mp-12324']
2599,0.0,VCo,V1 Co1,['mp-1002109']
2600,0.0,Ca2TlCd,Ca2 Tl1 Cd1,"['mp-1227630', 'mp-867849']"
2601,0.0,Lu2Fe2Si2C,Lu2 Fe2 Si2 C1,['mp-1025357']
2602,0.0,Zr6Al2Ni,Zr6 Al2 Ni1,['mp-13092']
2603,0.0,NdTlAg2,Nd1 Tl1 Ag2,['mp-974782']
2604,0.0,PrBi2O6,Pr1 Bi2 O6,['mvc-9319']
2605,0.0,Li4Fe2Cu3O10,Li4 Fe2 Cu3 O10,['mp-849416']
2606,0.0,Dy2MgIn,Dy2 Mg1 In1,['mp-865007']
2607,0.0,ScBPd3,Sc1 B1 Pd3,['mp-1017631']
2608,0.0,CsNi2F6,Cs1 Ni2 F6,"['mp-1181552', 'mp-647818']"
2609,0.0,TbTe,Tb1 Te1,"['mp-867290', 'mp-1176']"
2610,0.0,LiCu2(CO3)2,Li1 Cu2 C2 O6,"['mp-760546', 'mp-753403']"
2611,0.0,TaTiFe2,Ta1 Ti1 Fe2,['mp-979751']
2612,0.0,Er5NiPb3,Er5 Ni1 Pb3,['mp-570864']
2613,0.0,CaGaAu3,Ca1 Ga1 Au3,['mp-567485']
2614,0.0,BaGe3Pt,Ba1 Ge3 Pt1,['mp-22346']
2615,0.0,BaZn(MoO2)4,Ba1 Zn1 Mo4 O8,['mvc-933']
2616,0.0,La10Mn9O30,La10 Mn9 O30,"['mp-757943', 'mp-530985']"
2617,0.0,PrB2Ru2,Pr1 B2 Ru2,['mp-975729']
2618,0.0,CaPb,Ca1 Pb1,['mp-20034']
2619,0.0,DyNiGe2,Dy1 Ni1 Ge2,"['mp-638084', 'mp-1078577']"
2620,0.0,CrCo2Bi,Cr1 Co2 Bi1,['mp-1018080']
2621,0.0,Pm2LiIr,Pm2 Li1 Ir1,['mp-861956']
2622,0.0,LuAlAg2,Lu1 Al1 Ag2,['mp-976931']
2623,0.0,BaPt5,Ba1 Pt5,['mp-811']
2624,0.0,RbBr3,Rb1 Br3,['mp-975411']
2625,0.0,ErTlPd,Er1 Tl1 Pd1,['mp-30609']
2626,0.0,Zn2WN2,Zn2 W1 N2,['mvc-13731']
2627,0.0,Ca11Ga7,Ca11 Ga7,['mp-30474']
2628,0.0,LiTaRh2,Li1 Ta1 Rh2,['mp-861951']
2629,0.0,Ta2TlO6,Ta2 Tl1 O6,['mp-38212']
2630,0.0,Al9Co2,Al9 Co2,['mp-16488']
2631,0.0,Pr9Sb5O5,Pr9 Sb5 O5,['mp-555896']
2632,0.0,Pr4Sb3,Pr4 Sb3,['mp-1484']
2633,0.0,LiMn9Se10,Li1 Mn9 Se10,['mp-676780']
2634,0.0,Pm2CuGe,Pm2 Cu1 Ge1,['mp-863664']
2635,0.0,ZrCd,Zr1 Cd1,['mp-1017540']
2636,0.0,UGa3Ni,U1 Ga3 Ni1,"['mp-1070301', 'mp-31428']"
2637,0.0,Mg32Al36Ag13,Mg32 Al36 Ag13,['mp-31506']
2638,0.0,SrLi2Sn,Sr1 Li2 Sn1,['mp-867171']
2639,0.0,CaAu5,Ca1 Au5,['mp-568920']
2640,0.0,U2Cl5O2,U2 Cl5 O2,['mp-27661']
2641,0.0,YTi4(CuO4)3,Y1 Ti4 Cu3 O12,['mvc-1811']
2643,0.0,Eu2Ge(BO4)2,Eu2 Ge1 B2 O8,['mp-1019739']
2644,0.0,SrN2,Sr1 N2,"['mp-10564', 'mp-1071980']"
2645,0.0,CrFe2Se4,Cr1 Fe2 Se4,"['mp-568349', 'mp-673844']"
2646,0.0,TiAsRh,Ti1 As1 Rh1,"['mp-961718', 'mp-505540']"
2647,0.0,BaCaSn3,Ba1 Ca1 Sn3,['mp-583645']
2648,0.0,SrRhF6,Sr1 Rh1 F6,['mp-9926']
2649,0.0,Ni4P3O12,Ni4 P3 O12,"['mp-26512', 'mp-777879']"
2650,0.0,Li5Mn6(BO3)6,Li5 Mn6 B6 O18,"['mp-781617', 'mp-849503', 'mp-777991', 'mp-780433', 'mp-780419', 'mp-849498', 'mp-850959', 'mp-849413', 'mp-849613', 'mp-776558', 'mp-849458', 'mp-849580', 'mp-849333', 'mp-767762', 'mp-781670', 'mp-782643', 'mp-849497', 'mp-849571', 'mp-849585', 'mp-849414', 'mp-849567', 'mp-849675', 'mp-849568', 'mp-780156', 'mp-777985', 'mp-849548', 'mp-780308', 'mp-782820', 'mp-766536', 'mp-849625', 'mp-849508', 'mp-782654', 'mp-780199']"
2651,0.0,KAgO,K1 Ag1 O1,"['mp-1009048', 'mp-3074']"
2652,0.0,Li4Ni3BiO8,Li4 Ni3 Bi1 O8,"['mp-756926', 'mp-1312784', 'mp-1309606', 'mp-1301795']"
2653,0.0,Ce3TaO7,Ce3 Ta1 O7,['mp-754141']
2654,0.0,HfAlPd2,Hf1 Al1 Pd2,['mp-16501']
2655,0.0,Ca3Zr17O37,Ca3 Zr17 O37,['mp-674516']
2656,0.0,Li2Fe3CoO8,Li2 Fe3 Co1 O8,"['mp-762142', 'mp-756292', 'mp-757499', 'mp-756157', 'mp-1178151', 'mp-762595', 'mp-759180', 'mp-756518']"
2657,0.0,Li2FeWO6,Li2 Fe1 W1 O6,"['mp-774932', 'mp-1273808']"
2658,0.0,SmInAu,Sm1 In1 Au1,['mp-621351']
2659,0.0,AlNi2S4,Al1 Ni2 S4,['mp-1257394']
2660,0.0,MnGaNi2,Mn1 Ga1 Ni2,"['mp-1066921', 'mp-604537', 'mp-606675', 'mp-601285', 'mp-20228']"
2661,0.0,Mg2Zr14O5,Mg2 Zr14 O5,['mp-674528']
2662,0.0,Li3Ti2(PO4)3,Li3 Ti2 P3 O12,"['mp-25839', 'mp-757671', 'mp-26883', 'mp-776625', 'mp-1177523', 'mp-758310', 'mp-758393', 'mp-758362', 'mp-759187', 'mp-25935', 'mp-757276', 'mp-757914', 'mp-781803', 'mp-1177524', 'mp-758287']"
2663,0.0,MgSbPt,Mg1 Sb1 Pt1,['mp-10184']