,Eg (eV),Comp,composition,mp_ids
652,2.64,TlBr,Tl1 Br1,"['mp-22875', 'mp-568949', 'mp-568560']"
653,2.64,Ba2V4Te3O18,Ba2 V4 Te3 O18,0
654,2.64,AgGaS2,Ag1 Ga1 S2,"['mp-5342', 'mp-1096972', 'mp-556916']"
655,2.64,Li2GaGe2Se6,Li2 Ga1 Ge2 Se6,0
656,2.64,Rb2CuNbS4,Rb2 Cu1 Nb1 S4,['mp-15221']
657,2.64,K2Hg3Ge2S8,K2 Hg3 Ge2 S8,"['mp-11131', 'mp-17792']"
658,2.64,BaGa4Se7,Ba1 Ga4 Se7,['mp-1191072']
659,2.63,K2AuPS4,K2 Au1 P1 S4,['mp-9509']
660,2.63,BaIn2Se4,Ba1 In2 Se4,['mp-21766']
661,2.63,AgGaSiSe4,Ag1 Ga1 Si1 Se4,0
662,2.63,Cs2CdP2Se6,Cs2 Cd1 P2 Se6,0
663,2.63,Tl4GaIn3S8,Tl4 Ga1 In3 S8,0
664,2.62,Ba3BSbS6,Ba3 B1 Sb1 S6,0
665,2.62,Nd4Ge3S12,Nd4 Ge3 S12,['mp-560086']
666,2.62,Rb3Bi2Br9,Rb3 Bi2 Br9,['mp-1195363']
667,2.62,Pb14B2O14Br6,Pb14 B2 O14 Br6,['mp-1201413']
668,2.61,La3InGe0.5S7,La3 In1 Ge0.5 S7,0
669,2.61,Li8GeN4,Li8 Ge1 N4,0
670,2.61,Sb3O4I,Sb3 O4 I1,"['mp-1209215', 'mp-1209250', 'mp-1173640']"
671,2.61,NaLaS3,Na1 La1 S3,0
672,2.61,Pr2.48Tb0.52Ga1.67S7,Pr2.48 Tb0.52 Ga1.67 S7,0
673,2.6,K6Yb3P5S20,K6 Yb3 P5 S20,['mp-683975']
674,2.6,La5In3S9O3,La5 In3 S9 O3,0
675,2.6,Zn0.99Hg0.01Se,Zn0.99 Hg0.01 Se1,0
676,2.6,Hg2Br2,Hg2 Br2,['mp-23177']
677,2.6,HgPS3,Hg1 P1 S3,['mp-27178']
678,2.6,KGaSe2,K1 Ga1 Se2,0
679,2.6,Ga0.01P0.01Zn0.99Se0.99,Ga0.01 P0.01 Zn0.99 Se0.99,0
680,2.6,BSb,B1 Sb1,['mp-997618']
681,2.6,Ca5Bi14O26,Ca5 Bi14 O26,0
682,2.6,Hg3Te2UCl6,Hg3 Te2 U1 Cl6,['mp-567543']
683,2.6,Rb2AgPS4,Rb2 Ag1 P1 S4,['mp-1105212']
684,2.6,Ba7AgGa5S15,Ba7 Ag1 Ga5 S15,0
685,2.6,DyN,Dy1 N1,['mp-1410']
686,2.6,Sn2WO5,Sn2 W1 O5,['mp-557633']
687,2.6,Bi3TeBO9,Bi3 Te1 B1 O9,0
688,2.6,Cu2Ta4O11,Cu2 Ta4 O11,['mp-676563']
689,2.6,La6Sb4S3O12,La6 Sb4 S3 O12,['mp-1223262']
690,2.6,ScN,Sc1 N1,"['mp-12981', 'mp-1009750', 'mp-2857']"
691,2.6,Zn3B2O6,Zn3 B2 O6,"['mp-559949', 'mp-557683', 'mp-542833']"
692,2.6,Ba5CdGa6Se15,Ba5 Cd1 Ga6 Se15,0
693,2.6,SmCuOSe,Sm1 Cu1 O1 Se1,['mp-9194']
694,2.6,Rb3Ag9P4S16,Rb3 Ag9 P4 S16,0
695,2.6,AsBr3,As1 Br3,['mp-23317']
696,2.6,Cu0.3Ga1.7S2.7,Cu0.3 Ga1.7 S2.7,0
697,2.59,GaS,Ga1 S1,"['mp-556742', 'mp-9889', 'mp-2507']"
698,2.59,Cu2O,Cu2 O1,['mp-361']
699,2.59,K2SmP2S7,K2 Sm1 P2 S7,['mp-555587']
700,2.59,Cu2Ta11O30,Cu2 Ta11 O30,0
701,2.59,Ga0.01As0.01Zn0.99Se0.99,Ga0.01 As0.01 Zn0.99 Se0.99,0
702,2.58,Dy4GaSbS9,Dy4 Ga1 Sb1 S9,['mp-1196712']
703,2.58,Rb2CdP2Se6,Rb2 Cd1 P2 Se6,['mp-541897']
704,2.58,K2CdP2Se6,K2 Cd1 P2 Se6,0
705,2.58,Cu5Ta11O30,Cu5 Ta11 O30,0
706,2.58,CsCdBO3,Cs1 Cd1 B1 O3,['mp-1191636']
707,2.57,Na2CdGe2S6,Na2 Cd1 Ge2 S6,['mp-1190146']
708,2.57,Cu0.35Ga1.65S2.65,Cu0.35 Ga1.65 S2.65,0
709,2.56,CsErZnSe3,Cs1 Er1 Zn1 Se3,['mp-7155']
710,2.56,Cs2Hg3I8,Cs2 Hg3 I8,['mp-540574']
711,2.56,Ba12In4S19,Ba12 In4 S19,['mp-1229044']
712,2.56,AgCd3PS6,Ag1 Cd3 P1 S6,0
713,2.56,Hg2Cu3Te6O16,Hg2 Cu3 Te6 O16,['mp-1194777']
714,2.55,Gd2S3,Gd2 S3,"['mp-684712', 'mp-608146', 'mp-669509']"
715,2.55,Ba4Ga2S8,Ba4 Ga2 S8,['mp-1199702']
716,2.55,AgAlSe2,Ag1 Al1 Se2,['mp-14091']
717,2.55,CaGd2S4,Ca1 Gd2 S4,['mp-36358']
718,2.55,SnGa4Se7,Sn1 Ga4 Se7,0
719,2.54,CsYHgSe3,Cs1 Y1 Hg1 Se3,['mp-11123']
720,2.54,La3GaGe0.5S7,La3 Ga1 Ge0.5 S7,0
721,2.54,Li2In2SiSe6,Li2 In2 Si1 Se6,['mp-1191817']
722,2.54,BiFeSe3O9,Bi1 Fe1 Se3 O9,['mp-1197024']
723,2.54,Hg7InS6Cl5,Hg7 In1 S6 Cl5,['mp-1196151']
724,2.54,NaSmP2S6,Na1 Sm1 P2 S6,['mp-561232']
725,2.54,CsYCdSe3,Cs1 Y1 Cd1 Se3,['mp-11116']
726,2.53,Na4MgGe2Se6,Na4 Mg1 Ge2 Se6,['mp-1103730']
727,2.52,AgBr,Ag1 Br1,"['mp-866291', 'mp-570301', 'mp-1060967', 'mp-23231']"
728,2.52,Na2CdSnS4,Na2 Cd1 Sn1 S4,['mp-561075']
729,2.52,CeFMoO4,Ce1 F1 Mo1 O4,['mp-1192442']
730,2.52,La2Sr2PtO7.13,La2 Sr2 Pt1 O7.13,0
731,2.52,Ba4AgGa5S12,Ba4 Ag1 Ga5 S12,0
732,2.51,Ba2GaSbSe5,Ba2 Ga1 Sb1 Se5,['mp-1203387']
733,2.51,VTeO5H,V1 Te1 O5 H1,0
734,2.51,K6CdTe4,K6 Cd1 Te4,['mp-17698']
735,2.51,CsLaHgSe3,Cs1 La1 Hg1 Se3,['mp-11124']
736,2.51,Ba5Ga2Se8,Ba5 Ga2 Se8,['mp-1204617']
737,2.5,K2Hg3Sn2S8,K2 Hg3 Sn2 S8,['mp-18115']
738,2.5,SbI3,Sb1 I3,"['mp-569224', 'mp-23281']"
739,2.5,Pb3BiV3O12,Pb3 Bi1 V3 O12,['mp-1216962']
740,2.5,Mn2P2Se6,Mn2 P2 Se6,['mp-8695']
741,2.5,MnSe,Mn1 Se1,"['mp-972', 'mp-2293', 'mp-604910', 'mp-999540', 'mp-10204']"
742,2.5,Cs3Bi2Br9,Cs3 Bi2 Br9,"['mp-680674', 'mp-27544']"
743,2.5,Zn0.15Cd0.85Se,Zn0.15 Cd0.85 Se1,0
744,2.5,LaS1.86Se0.14,La1 S1.86 Se0.14,0
745,2.5,RbTbSe2,Rb1 Tb1 Se2,['mp-10782']
746,2.5,Zn0.01Cd0.99Se,Zn0.01 Cd0.99 Se1,0
747,2.5,RbIn5S6,Rb1 In5 S6,0
748,2.5,Sm3S3BO3,Sm3 S3 B1 O3,0
749,2.5,CdS,Cd1 S1,"['mp-672', 'mp-2469', 'mp-1181862', 'mp-1021511', 'mp-370']"
750,2.5,Ho2GeS5,Ho2 Ge1 S5,0
751,2.5,LaGaS3,La1 Ga1 S3,"['mp-4816', 'mp-1201646']"
752,2.5,PSe,P1 Se1,['mp-28885']
753,2.49,Sn3WO6,Sn3 W1 O6,['mp-556980']
754,2.49,Ag2CdP2S6,Ag2 Cd1 P2 S6,0
755,2.49,Ga0.01Al0.99P,Ga0.01 Al0.99 P1,0
756,2.49,K3Cu3Th2S7,K3 Cu3 Th2 S7,['mp-638086']
757,2.48,PbSbO2I,Pb1 Sb1 O2 I1,['mp-1219447']
758,2.48,As2S5,As2 S5,0
759,2.48,Hg4As2ZrCl6,Hg4 As2 Zr1 Cl6,0
760,2.48,Cd2V2Te2O11,Cd2 V2 Te2 O11,0
761,2.48,Cs2Cd3Te4,Cs2 Cd3 Te4,['mp-567386']
762,2.48,Rb2Hg3Sn2S8,Rb2 Hg3 Sn2 S8,['mp-561434']
763,2.48,Ta0.67Zr1.33O1.89N1.63,Ta0.67 Zr1.33 O1.89 N1.63,0
764,2.48,Rb3Sb2Br9,Rb3 Sb2 Br9,"['mp-28222', 'mp-1194576']"
765,2.47,Ag2HgI4,Ag2 Hg1 I4,"['mp-675242', 'mp-23485', 'mp-570256', 'mp-1229122', 'mp-37163']"
766,2.47,Ba2In2S5,Ba2 In2 S5,['mp-22841']
767,2.47,Na2GeIn2Se6,Na2 Ge1 In2 Se6,0
768,2.47,CsSmCdSe3,Cs1 Sm1 Cd1 Se3,['mp-510062']
769,2.47,Cu3Ta7O19,Cu3 Ta7 O19,['mp-28752']
770,2.47,Sr2V3Se5O18,Sr2 V3 Se5 O18,['mp-1197632']
771,2.47,Hg4As2HfCl6,Hg4 As2 Hf1 Cl6,['mp-1198529']
772,2.46,Cu0.5Ga1.5S2.5,Cu0.5 Ga1.5 S2.5,0
773,2.46,Na2BaSnSe4,Na2 Ba1 Sn1 Se4,0
774,2.46,BaZnGeSe4,Ba1 Zn1 Ge1 Se4,0
775,2.46,K4Sn3Ce3S14,K4 Sn3 Ce3 S14,0
776,2.46,Li2HgGeS4,Li2 Hg1 Ge1 S4,0
777,2.46,TaGaS2,Ta1 Ga1 S2,0
778,2.46,K2CeP2O8,K2 Ce1 P2 O8,"['mp-1195550', 'mp-560528']"
779,2.45,SrNd2S4,Sr1 Nd2 S4,['mp-37108']
780,2.45,Cu0.4Ga1.6S2.6,Cu0.4 Ga1.6 S2.6,0
781,2.45,PbBiO2Cl,Pb1 Bi1 O2 Cl1,['mp-23084']
782,2.45,SrCrO4,Sr1 Cr1 O4,"['mp-603935', 'mp-510607', 'mp-1179191']"
783,2.45,Na2Hg3Sn2S8,Na2 Hg3 Sn2 S8,0
784,2.45,Cu3NbSe4,Cu3 Nb1 Se4,['mp-4043']
785,2.44,Cs2TiAg2S4,Cs2 Ti1 Ag2 S4,['mp-10488']
786,2.44,Tb4GaSbS9,Tb4 Ga1 Sb1 S9,['mp-1202576']
787,2.44,Cs2P2Se8,Cs2 P2 Se8,0
788,2.43,Ba3B1.5S6Bi0.5,Ba3 B1.5 S6 Bi0.5,0
789,2.43,Ga0.2Al0.8P,Ga0.2 Al0.8 P1,0
790,2.43,CsSmZnSe3,Cs1 Sm1 Zn1 Se3,['mp-505709']
791,2.43,K2Ho4Cu4S9,K2 Ho4 Cu4 S9,"['mp-1172870', 'mp-680679']"
792,2.43,Hg8As4Bi3Cl13,Hg8 As4 Bi3 Cl13,0
793,2.43,SnS2,Sn1 S2,"['mp-9984', 'mp-1002063', 'mp-1095397', 'mp-1170']"
794,2.42,Ga0.25Al0.75As,Ga0.25 Al0.75 As1,0
795,2.42,CuGa2S3.5,Cu1 Ga2 S3.5,0
796,2.42,K4Nb2S11,K4 Nb2 S11,['mp-15148']
797,2.41,Ba4AgInSe6,Ba4 Ag1 In1 Se6,0
798,2.41,CsRbP2Se8,Cs1 Rb1 P2 Se8,0
799,2.41,Gd4GaSbS9,Gd4 Ga1 Sb1 S9,['mp-1199284']
800,2.41,CsYZnSe3,Cs1 Y1 Zn1 Se3,['mp-574620']
801,2.4,Na2PtI6O18,Na2 Pt1 I6 O18,0
802,2.4,Rb2PtI6O18,Rb2 Pt1 I6 O18,0
803,2.4,NaInSnS4,Na1 In1 Sn1 S4,0
804,2.4,CdS0.99Se0.01,Cd1 S0.99 Se0.01,0
805,2.4,In0.5Al0.5P,In0.5 Al0.5 P1,0
806,2.4,Ga0.05P0.05Zn0.95Se0.95,Ga0.05 P0.05 Zn0.95 Se0.95,0
807,2.4,PbGeS3,Pb1 Ge1 S3,['mp-624190']
808,2.4,Ga0.4Al0.6P,Ga0.4 Al0.6 P1,0
809,2.4,In0.01Al0.99P,In0.01 Al0.99 P1,0
810,2.4,Cs2PtI6O18,Cs2 Pt1 I6 O18,0
811,2.4,Rb3Al3Ge7Se20,Rb3 Al3 Ge7 Se20,0
812,2.4,Ba3Sb2S7,Ba3 Sb2 S7,['mp-1195624']
813,2.4,CaTaO2N,Ca1 Ta1 O2 N1,"['mp-1227217', 'mp-556340']"
814,2.4,As4S4,As4 S4,"['mp-542604', 'mp-556328', 'mp-1229002', 'mp-542846', 'mp-684081', 'mp-705472', 'mp-542810', 'mp-1182330', 'mp-1103186']"
815,2.4,Bi2CrI2O11,Bi2 Cr1 I2 O11,0
816,2.4,Zn0.85S0.85Ga0.15P0.15,Zn0.85 S0.85 Ga0.15 P0.15,0
817,2.4,CsCdInSe3,Cs1 Cd1 In1 Se3,0
818,2.4,Tl2CeP2S7,Tl2 Ce1 P2 S7,['mp-638100']
819,2.4,SnI2,Sn1 I2,"['mp-27194', 'mp-978846']"
820,2.4,Zn0.7S0.7Ga0.3P0.3,Zn0.7 S0.7 Ga0.3 P0.3,0
821,2.4,La20Mo12O63Cl4,La20 Mo12 O63 Cl4,0
822,2.4,Na2S,Na2 S1,"['mp-648', 'mp-8374', 'mp-556978']"
823,2.4,CsInGeS4,Cs1 In1 Ge1 S4,0
824,2.4,CuGaS2,Cu1 Ga1 S2,"['mp-1096985', 'mp-5238']"
825,2.4,P2Se3,P2 Se3,0
826,2.4,BiZn2VO6,Bi1 Zn2 V1 O6,0
827,2.4,Cs2CuP3S9,Cs2 Cu1 P3 S9,0
828,2.4,RbAg5P2S8,Rb1 Ag5 P2 S8,['mp-1195102']
829,2.4,Ba2HgS5,Ba2 Hg1 S5,['mp-1194545']
830,2.4,CsCeCdSe3,Cs1 Ce1 Cd1 Se3,['mp-574426']
831,2.38,Y6ZnSi2S14,Y6 Zn1 Si2 S14,['mp-1216132']
832,2.38,GeSe2,Ge1 Se2,"['mp-540625', 'mp-10074']"
833,2.38,Ba2BiGaS5,Ba2 Bi1 Ga1 S5,['mp-1201906']
834,2.38,Cs4Ta4P4Se24,Cs4 Ta4 P4 Se24,0
835,2.38,PbGa2S4,Pb1 Ga2 S4,['mp-1196984']
836,2.38,SnI4,Sn1 I4,"['mp-571436', 'mp-23182']"
837,2.38,Na2Ge2Se5,Na2 Ge2 Se5,"['mp-17964', 'mp-18619']"
838,2.37,Ag4Ba6Sn4S16,Ag4 Ba6 Sn4 S16,0
839,2.37,Hg2I2,Hg2 I2,['mp-22859']
840,2.37,ZnTc,Zn1 Tc1,0
841,2.37,Rb2Cd3Se4,Rb2 Cd3 Se4,['mp-16818']
842,2.37,CsSmHgSe3,Cs1 Sm1 Hg1 Se3,['mp-7212']
843,2.37,KUO3Cl,K1 U1 O3 Cl1,['mp-1095429']
844,2.37,Na2CdGe2Se6,Na2 Cd1 Ge2 Se6,0
845,2.36,PbI2,Pb1 I2,"['mp-567246', 'mp-567199', 'mp-22893', 'mp-569595', 'mp-580202', 'mp-574189', 'mp-567503', 'mp-672671', 'mp-567542', 'mp-640058', 'mp-567178', 'mp-22883', 'mp-540789', 'mp-680205', 'mp-1203179']"
846,2.36,Cu2MgGeS4,Cu2 Mg1 Ge1 S4,['mp-1189056']
847,2.36,K2Cd3Se4,K2 Cd3 Se4,['mp-1198419']
848,2.36,Na2ZnGe2Se6,Na2 Zn1 Ge2 Se6,['mp-1190476']
849,2.36,CsKP2Se8,Cs1 K1 P2 Se8,0
850,2.35,BaSn2S5,Ba1 Sn2 S5,['mp-1202711']
851,2.35,Ag2Ga2SiS6,Ag2 Ga2 Si1 S6,0
852,2.35,As2S6,As2 S6,0
853,2.35,Na2TeS3,Na2 Te1 S3,['mp-1190141']
854,2.35,Ga0.6Al0.4P,Ga0.6 Al0.4 P1,0
855,2.35,NaGaGe3Se8,Na1 Ga1 Ge3 Se8,0
856,2.35,Cs4Zr3S14,Cs4 Zr3 S14,['mp-680246']
857,2.35,Ba2GaDySe5,Ba2 Ga1 Dy1 Se5,['mp-1105698']
858,2.35,Pb4Ga5GeS12,Pb4 Ga5 Ge1 S12,0
859,2.34,BaSbBS4,Ba1 Sb1 B1 S4,['mp-866301']
860,2.34,CeBiW2O9,Ce1 Bi1 W2 O9,['mp-1204806']
861,2.34,Al0.74Gd3Si0.7S7,Al0.74 Gd3 Si0.7 S7,0
862,2.34,Rb3CdB5O10,Rb3 Cd1 B5 O10,['mp-1200569']
863,2.34,ZnGeP2,Zn1 Ge1 P2,"['mp-4524', 'mp-1215424']"
864,2.34,Cs2Sn3Sb2S10,Cs2 Sn3 Sb2 S10,['mp-1195304']
865,2.34,Ga0.1As0.1Zn0.9Se0.9,Ga0.1 As0.1 Zn0.9 Se0.9,0
866,2.34,K8Ce2I18O53,K8 Ce2 I18 O53,0
867,2.33,Cu2ZnSiSe4,Cu2 Zn1 Si1 Se4,"['mp-1104843', 'mp-1232332', 'mp-1232397']"
868,2.33,Rb2Sn3Sb2S10,Rb2 Sn3 Sb2 S10,['mp-1194540']
869,2.33,Rb2TiAg2S4,Rb2 Ti1 Ag2 S4,['mp-1209316']
870,2.33,K6Cd4Sn3Se13,K6 Cd4 Sn3 Se13,['mp-6296']
871,2.32,BaAuI5O15,Ba1 Au1 I5 O15,0
872,2.32,Li2HgSnS4,Li2 Hg1 Sn1 S4,0
873,2.32,Rb2HgP2Se6,Rb2 Hg1 P2 Se6,0
874,2.32,V2O5,V2 O5,"['mp-1245325', 'mp-25288', 'mp-754585', 'mp-1245153', 'mvc-11086', 'mp-1104615', 'mp-1245061', 'mp-1245118', 'mp-624689', 'mp-1245049', 'mp-1245097', 'mp-510568', 'mp-1245160', 'mp-1245283', 'mp-1245312', 'mp-1244920', 'mp-1245101', 'mp-1245162', 'mp-1244942', 'mp-25280', 'mp-1244889', 'mp-1244904', 'mp-1244961', 'mp-1244925', 'mp-1244978', 'mp-1245240', 'mp-1245005', 'mp-1245284', 'mp-776152', 'mp-1178826', 'mp-1245142', 'mp-755235', 'mp-25279', 'mp-1216596', 'mp-1244901', 'mp-1245120', 'mp-1245272', 'mp-1245315', 'mp-1245219', 'mp-1245137', 'mp-1245275', 'mp-1245174', 'mp-849565', 'mp-1245171', 'mp-25207', 'mp-1244996', 'mp-1245058', 'mp-1245221', 'mp-542844', 'mp-1245198', 'mp-776041', 'mp-1245000', 'mp-1245156', 'mp-754670', 'mp-1245096', 'mp-1244985', 'mp-1245040', 'mp-25233']"
875,2.32,Ag2CdGeS4,Ag2 Cd1 Ge1 S4,"['mp-1197203', 'mp-554105']"
876,2.32,Ca2SnS4,Ca2 Sn1 S4,"['mp-866883', 'mp-866810', 'mp-866503', 'mp-866829', 'mp-866496', 'mp-866832', 'mp-866521', 'mp-866470', 'mp-866539', 'mp-866580', 'mp-866818', 'mp-866824', 'mp-866520', 'mp-866819', 'mp-866522', 'mp-1100332', 'mp-866834', 'mp-866813', 'mp-866922', 'mp-866943', 'mp-866474']"
877,2.32,CsInGeSe4,Cs1 In1 Ge1 Se4,0
878,2.32,Ba2AgInS4,Ba2 Ag1 In1 S4,0
879,2.32,KZn4B3O9,K1 Zn4 B3 O9,['mp-6652']
880,2.31,Ta0.67Zr1.33O1.38N1.97,Ta0.67 Zr1.33 O1.38 N1.97,0
881,2.31,LiGaTe2,Li1 Ga1 Te2,['mp-5048']
882,2.31,LaCuOTe,La1 Cu1 O1 Te1,['mp-546790']
883,2.31,Ba2InYSe5,Ba2 In1 Y1 Se5,['mp-1205397']
884,2.31,Ba2GaYSe5,Ba2 Ga1 Y1 Se5,['mp-1106265']
885,2.31,Ba8Sn4S15,Ba8 Sn4 S15,['mp-1195594']
886,2.31,Cs2ZnGe3Se8,Cs2 Zn1 Ge3 Se8,['mp-1194749']
887,2.3,RbAg2SbS4,Rb1 Ag2 Sb1 S4,['mp-17756']
888,2.3,KV2I3O13,K1 V2 I3 O13,0
889,2.3,Fe4I3O24H15,Fe4 I3 O24 H15,0
890,2.3,KInSnS4,K1 In1 Sn1 S4,0
891,2.3,Tl6CuTe2O10,Tl6 Cu1 Te2 O10,0
892,2.3,Ga0.8Al0.2P,Ga0.8 Al0.2 P1,0
893,2.3,BaCdSnS4,Ba1 Cd1 Sn1 S4,['mp-12306']
894,2.3,CsHgInS3,Cs1 Hg1 In1 S3,['mp-1194853']
895,2.3,CsAu,Cs1 Au1,['mp-2667']
896,2.3,Ga0.1P0.1Zn0.9Se0.9,Ga0.1 P0.1 Zn0.9 Se0.9,0
897,2.3,BaCuTeF,Ba1 Cu1 Te1 F1,['mp-13287']
898,2.3,K2Sn3Sb2S10,K2 Sn3 Sb2 S10,['mp-1195395']
899,2.3,TaN,Ta1 N1,"['mp-1497', 'mp-1009831', 'mp-1244946', 'mp-1279', 'mp-570604', 'mp-1244870', 'mp-1009833', 'mp-1245175', 'mp-1245149', 'mp-251', 'mp-570454', 'mp-1244977', 'mp-1459']"
900,2.3,Hg0.01Zn0.99Te,Hg0.01 Zn0.99 Te1,0
901,2.3,Li2In2GeSe6,Li2 In2 Ge1 Se6,['mp-1191200']
902,2.3,Na2Te,Na2 Te1,['mp-2784']
903,2.3,La8Sb2S15,La8 Sb2 S15,['mp-1195582']
904,2.3,Li2PtO3,Li2 Pt1 O3,['mp-531826']
905,2.3,K10Mn4Sn4S17,K10 Mn4 Sn4 S17,['mp-1224600']
906,2.3,K2ZnSn3S8,K2 Zn1 Sn3 S8,0
907,2.3,Ga2Se3,Ga2 Se3,"['mp-1340', 'mp-1224809', 'mp-672302']"
908,2.3,TlInS2,Tl1 In1 S2,"['mp-1179274', 'mp-865274', 'mp-1078621', 'mp-690644', 'mp-632539', 'mp-22566', 'mp-20042']"
909,2.3,SmS,Sm1 S1,"['mp-1269', 'mp-1879']"
910,2.3,Cs3Sb2Br9,Cs3 Sb2 Br9,['mp-579560']
911,2.3,In0.4Al0.6P,In0.4 Al0.6 P1,0
912,2.3,Ba3Bi2TeO9,Ba3 Bi2 Te1 O9,['mp-556407']
913,2.3,LiInSnS4,Li1 In1 Sn1 S4,0
914,2.3,YbGa2S4,Yb1 Ga2 S4,"['mp-1104569', 'mp-561799']"
915,2.3,CsCu2AsS3,Cs1 Cu2 As1 S3,['mp-1196438']
916,2.3,In0.3Al0.7P,In0.3 Al0.7 P1,0
917,2.3,Zn0.3S0.3Ga0.7P0.7,Zn0.3 S0.3 Ga0.7 P0.7,0
918,2.3,Eu2Ga2GeS7,Eu2 Ga2 Ge1 S7,['mp-1192354']
919,2.3,Sm2Se3,Sm2 Se3,"['mp-32594', 'mp-15081']"
920,2.3,CdO,Cd1 O1,"['mp-1132', 'mp-13119']"
921,2.3,Ga0.4Al0.6As,Ga0.4 Al0.6 As1,0
922,2.3,Rb6P3S15,Rb6 P3 S15,0
923,2.3,Cu9S5,Cu1.8 S1,"['mp-542333', 'mp-685108', 'mp-684710']"
924,2.3,PbBiO2Br,Pb1 Bi1 O2 Br1,['mp-1227444']
925,2.3,ReO3,Re1 O3,"['mp-9761', 'mp-547271', 'mp-190', 'mp-755021', 'mp-1237229', 'mp-20741']"
926,2.3,Zn0.55S0.55Ga0.45P0.45,Zn0.55 S0.55 Ga0.45 P0.45,0
927,2.3,TlInGeS4,Tl1 In1 Ge1 S4,0
928,2.3,Rb2Cd3Te4,Rb2 Cd3 Te4,['mp-29901']
929,2.3,Ag3Ga3SiSe8,Ag3 Ga3 Si1 Se8,0
930,2.3,Ce4Ge3S12,Ce4 Ge3 S12,['mp-606703']
931,2.3,Sm2Sc3,Sm2 Sc3,0
932,2.3,K2Au2Sn2S6,K2 Au2 Sn2 S6,['mp-1223460']
933,2.29,AsI3,As1 I3,['mp-23218']
934,2.29,Ba7Sn5S15,Ba7 Sn5 S15,0
935,2.29,Cs2Ta2P2Se12,Cs2 Ta2 P2 Se12,0
936,2.29,Ba2InErSe5,Ba2 In1 Er1 Se5,['mp-1188122']
937,2.28,K2Hg3S2.69Se1.31,K2 Hg3 S2.69 Se1.31,0
938,2.28,K2Au2Sn2Se6,K2 Au2 Sn2 Se6,['mp-1223442']
939,2.27,Li2B12Si2,Li2 B12 Si2,['mp-973391']
940,2.27,Ba2InDySe5,Ba2 In1 Dy1 Se5,['mp-1106127']
941,2.27,La4Cd4In2S13,La4 Cd4 In2 S13,['mp-1196490']
942,2.27,Mg2Si,Mg2 Si1,"['mp-570657', 'mp-1074669', 'mp-1074652', 'mp-1074685', 'mp-1074641', 'mp-1101851', 'mp-1074714', 'mp-1074616', 'mp-1074729', 'mp-1074672', 'mp-1074738', 'mp-1074730', 'mp-1074772', 'mp-1074619', 'mp-1180797', 'mp-1074665', 'mp-1074751', 'mp-1074637', 'mp-1074700', 'mp-1074613', 'mp-1074644', 'mp-1074681', 'mp-1074759', 'mp-1074632', 'mp-1074668', 'mp-1018796', 'mp-1100468', 'mp-1074770', 'mp-1074703', 'mp-1074753', 'mp-1367', 'mp-1074720', 'mp-1074676', 'mp-1074780', 'mp-1074733', 'mp-1074667', 'mp-1074636', 'mp-1074645']"
943,2.27,Ga0.99Al0.01P,Ga0.99 Al0.01 P1,0
944,2.27,Ba2GaSmSe5,Ba2 Ga1 Sm1 Se5,['mp-1189376']
945,2.26,CI4,C1 I4,['mp-27962']
946,2.26,NdCuOTe,Nd1 Cu1 O1 Te1,['mp-974307']
947,2.26,Sm3Al0.33SiS7,Sm3 Al0.33 Si1 S7,0
948,2.26,K2Cd3Te4,K2 Cd3 Te4,['mp-18531']
949,2.26,KBaAsSe3,K1 Ba1 As1 Se3,['mp-1191826']
950,2.25,K2HgP2Se6,K2 Hg1 P2 Se6,['mp-568855']
951,2.25,Na2BaGeSe4,Na2 Ba1 Ge1 Se4,0
952,2.25,Tl2O3,Tl2 O3,"['mp-1658', 'mp-684956']"
953,2.25,KAg2AsS3,K1 Ag2 As1 S3,0
954,2.25,Zn0.01S0.01Ga0.99P0.99,Zn0.01 S0.01 Ga0.99 P0.99,0
955,2.25,KBiSiS4,K1 Bi1 Si1 S4,['mp-866651']
956,2.25,PbCrO4,Pb1 Cr1 O4,"['mp-542031', 'mp-19146']"
957,2.25,Ga0.15As0.15Zn0.85Se0.85,Ga0.15 As0.15 Zn0.85 Se0.85,0
958,2.25,EuGa2S4,Eu1 Ga2 S4,"['mp-1181942', 'mp-1105072']"
959,2.25,In0.1As0.1Ga0.9P0.9,In0.1 As0.1 Ga0.9 P0.9,0
960,2.24,Ge0.542Si0.458,Ge0.542 Si0.458,0
961,2.24,Ba2InGdSe5,Ba2 In1 Gd1 Se5,0
962,2.24,Ag2V2I4O16,Ag2 V2 I4 O16,['mp-1198619']
963,2.24,Ga0.99P0.99Zn0.01Se0.01,Ga0.99 P0.99 Zn0.01 Se0.01,0
964,2.24,Ag3AsS3,Ag3 As1 S3,"['mp-561620', 'mp-555843', 'mp-4431']"
965,2.24,Cd4P2Cl3,Cd4 P2 Cl3,['mp-29746']
966,2.23,SnGeS3,Sn1 Ge1 S3,['mp-5045']
967,2.23,Sm4GaSbS9,Sm4 Ga1 Sb1 S9,['mp-1199065']
968,2.23,Ba4CuInSe6,Ba4 Cu1 In1 Se6,0
969,2.23,GaAs0.01P0.99,Ga1 As0.01 P0.99,0
970,2.23,NaAsS2,Na1 As1 S2,['mp-5942']
971,2.23,ZnHg3Se2Cl4,Zn1 Hg3 Se2 Cl4,0
972,2.23,CdS0.8Se0.2,Cd1 S0.8 Se0.2,0
973,2.23,K3Ga3Ge7Se20,K3 Ga3 Ge7 Se20,0
974,2.22,ThOS,Th1 O1 S1,['mp-8136']
975,2.22,TlAsS2,Tl1 As1 S2,['mp-4988']
976,2.22,SbSBr,Sb1 S1 Br1,"['mp-22971', 'mp-1103194']"
977,2.22,Dy3Al0.5SiS7,Dy3 Al0.5 Si1 S7,0
978,2.22,Ba2InSmSe5,Ba2 In1 Sm1 Se5,['mp-1188304']
979,2.21,Rb3Ta2AsS11,Rb3 Ta2 As1 S11,['mp-1209358']
980,2.21,Cd0.01Te0.01Al0.99Sb0.99,Cd0.01 Te0.01 Al0.99 Sb0.99,0
981,2.21,K3Ta2AsS11,K3 Ta2 As1 S11,['mp-1211748']
982,2.21,KAgAsS2,K1 Ag1 As1 S2,0
983,2.21,Ba2GaBiSe5,Ba2 Ga1 Bi1 Se5,['mp-1203584']
984,2.21,CsCd4Ga5Se12,Cs1 Cd4 Ga5 Se12,0
985,2.21,HgO,Hg1 O1,"['mp-7826', 'mp-1077107', 'mp-556859', 'mp-1224', 'mp-545619']"
986,2.2,KAg2SbS4,K1 Ag2 Sb1 S4,['mp-9490']
987,2.2,Tl4CuTeO6,Tl4 Cu1 Te1 O6,['mp-1191858']
988,2.2,Ba5Ga4Se10,Ba5 Ga4 Se10,0
989,2.2,K3NaSn3Se8,K3 Na1 Sn3 Se8,['mp-628185']
990,2.2,Fe2O3,Fe2 O3,"['mp-1244911', 'mp-1456', 'mp-1245078', 'mp-1205415', 'mp-1068212', 'mp-715572', 'mp-776606', 'mp-1245084', 'mp-510080', 'mp-19770', 'mp-557546', 'mp-715276', 'mp-716814', 'mp-542896', 'mp-1078361', 'mp-1178392', 'mp-685153', 'mp-1245277', 'mp-1245019', 'mp-565814', 'mp-705547', 'mp-1244869', 'mp-1245154', 'mvc-12005']"
991,2.2,P2Se5,P2 Se5,['mp-28860']
992,2.2,YVTeO10,Y1 V1 Te1 O10,0
993,2.2,GaAs0.2P0.8,Ga1 As0.2 P0.8,0
994,2.2,AgGaO2,Ag1 Ga1 O2,"['mp-1096976', 'mp-11020', 'mp-1105293', 'mp-1096971']"
995,2.2,AlB12,Al1 B12,0
996,2.2,In0.3Ga0.7P,In0.3 Ga0.7 P1,0
997,2.2,Cs4In8GeSe16,Cs4 In8 Ge1 Se16,0
998,2.2,K2Ag3Sb3S7,K2 Ag3 Sb3 S7,['mp-1223709']
999,2.2,K10Fe4Sn4S17,K10 Fe4 Sn4 S17,0
1000,2.2,K4In4P6Se20,K4 In4 P6 Se20,['mp-1199715']
1001,2.2,K2La2Sb2S9,K2 La2 Sb2 S9,['mp-1223734']
1002,2.2,Gd2Se3,Gd2 Se3,['mp-1188175']
1003,2.2,Mg3As2,Mg3 As2,"['mp-7844', 'mp-1990', 'mp-7891']"
1004,2.2,Gd6Ge2.5S14,Gd6 Ge2.5 S14,0
1005,2.2,HfSe2,Hf1 Se2,['mp-985831']
1006,2.2,Ba2InNdSe5,Ba2 In1 Nd1 Se5,['mp-1190093']
1007,2.2,K3SmAs2S8,K3 Sm1 As2 S8,['mp-560964']
1008,2.2,Tl2AuPS4,Tl2 Au1 P1 S4,['mp-9510']
1009,2.2,Na2Ga2SnS6,Na2 Ga2 Sn1 S6,0
1010,2.2,Cu2P2S6,Cu2 P2 S6,['mp-1105187']
1011,2.2,Bi2V2Se4O16,Bi2 V2 Se4 O16,0
1012,2.2,K5In3P6Se19,K5 In3 P6 Se19,['mp-1199321']
1013,2.2,Al2Te3,Al2 Te3,"['mp-1228524', 'mp-29502']"
1014,2.2,BaAgSbS3,Ba1 Ag1 Sb1 S3,['mp-1190401']
1015,2.19,Rb2TiCu2S4,Rb2 Ti1 Cu2 S4,['mp-7129']
1016,2.19,Cd4P2Br3,Cd4 P2 Br3,['mp-28914']
1017,2.19,Cs2CuNbSe4,Cs2 Cu1 Nb1 Se4,['mp-15223']
1018,2.19,Rb2CuNbSe4,Rb2 Cu1 Nb1 Se4,['mp-15222']
1019,2.19,RbCd4Ga5Se12,Rb1 Cd4 Ga5 Se12,0
1020,2.19,Cs2AgBiBr6,Cs2 Ag1 Bi1 Br6,"['mp-1120775', 'mp-1078250']"
1021,2.18,Ga0.75P0.75Zn0.25Se0.25,Ga0.75 P0.75 Zn0.25 Se0.25,0
1022,2.18,UO2,U1 O2,"['mp-865305', 'mp-1597']"
1023,2.18,ZnTe,Zn1 Te1,"['mp-9281', 'mp-8884', 'mp-1071319', 'mp-2176', 'mp-541441', 'mp-948', 'mp-571195']"
1024,2.18,Ba2GaNdSe5,Ba2 Ga1 Nd1 Se5,['mp-1205363']
1025,2.18,NaIn3S5,Na1 In3 S5,['mp-1195769']
1026,2.18,Tl3TaS4,Tl3 Ta1 S4,['mp-7562']
1027,2.18,RbPSe6,Rb1 P1 Se6,['mp-17945']
1028,2.18,Ba4Ga4GeSe12,Ba4 Ga4 Ge1 Se12,0
1029,2.17,PbGa2SiSe6,Pb1 Ga2 Si1 Se6,0
1030,2.17,Cs5P5Se12,Cs5 P5 Se12,0
1031,2.17,NaIn3Se5,Na1 In3 Se5,0
1032,2.17,TaGaSe2,Ta1 Ga1 Se2,0
1033,2.17,AgGaGe3Se8,Ag1 Ga1 Ge3 Se8,0
1034,2.17,ZrS3,Zr1 S3,['mp-9921']
1035,2.17,KSm2CuS4,K1 Sm2 Cu1 S4,['mp-11604']
1036,2.17,Cd4P2I3,Cd4 P2 I3,['mp-568545']
1037,2.17,K2Cu2ThS4,K2 Cu2 Th1 S4,['mp-555425']
1038,2.17,NaSbP2S6,Na1 Sb1 P2 S6,"['mp-561303', 'mp-554384']"
1039,2.16,EuGa2Se4,Eu1 Ga2 Se4,"['mp-1201775', 'mp-1104392']"