,Eg (eV),Comp,composition,mp_ids
4618,0.0,YCo2,Y1 Co2,['mp-1294']
4619,0.0,Li7Ti5O12,Li7 Ti5 O12,['mp-779455']
4620,0.0,RbCuPdF5,Rb1 Cu1 Pd1 F5,['mp-615754']
4621,0.0,BaTl3,Ba1 Tl3,['mp-984725']
4622,0.0,SmSnRh2,Sm1 Sn1 Rh2,['mp-972520']
4623,0.0,DyGe,Dy1 Ge1,['mp-20122']
4624,0.0,DyRh,Dy1 Rh1,['mp-232']
4625,0.0,Ti2BRh6,Ti2 B1 Rh6,['mp-571126']
4626,0.0,Ba8Ta7O24,Ba8 Ta7 O24,['mp-773073']
4627,0.0,LiMo3O8,Li1 Mo3 O8,['mp-25273']
4628,0.0,Dy3Cu4Ge4,Dy3 Cu4 Ge4,['mp-22039']
4629,0.0,Sr5Bi3,Sr5 Bi3,"['mp-1197242', 'mp-29620']"
4630,0.0,AlNi2,Al1 Ni2,['mp-1025044']
4631,0.0,MgV4O6,Mg1 V4 O6,['mvc-811']
4632,0.0,DyS2,Dy1 S2,"['mp-1018675', 'mp-16328']"
4633,0.0,YbLi2Pb,Yb1 Li2 Pb1,['mp-866180']
4634,0.0,Pr2InPd2,Pr2 In1 Pd2,['mp-21870']
4635,0.0,TbGa,Tb1 Ga1,['mp-11417']
4636,0.0,EuTl,Eu1 Tl1,['mp-542584']
4637,0.0,ZrRe2,Zr1 Re2,['mp-12109']
4638,0.0,CsNb6I11,Cs1 Nb6 I11,['mp-570455']
4639,0.0,HoInAu2,Ho1 In1 Au2,['mp-30388']
4641,0.0,Li3Dy,Li3 Dy1,['mp-977188']
4642,0.0,K4C2O3,K4 C2 O3,['mp-35889']
4643,0.0,NdSnRh,Nd1 Sn1 Rh1,['mp-567214']
4644,0.0,HoCd3,Ho1 Cd3,['mp-11302']
4645,0.0,TiOs3,Ti1 Os3,['mp-980203']
4646,0.0,Pr3I,Pr3 I1,['mp-975592']
4647,0.0,La3AlN,La3 Al1 N1,['mp-4505']
4648,0.0,Cu6PbO8,Cu6 Pb1 O8,"['mp-676499', 'mp-22037', 'mp-559633']"
4649,0.0,K3LiNb6O15,K3 Li1 Nb6 O15,['mp-773049']
4650,0.0,RbF3,Rb1 F3,"['mp-975422', 'mp-975312', 'mp-1179728', 'mp-1179734', 'mp-975337']"
4651,0.0,TmAlCu,Tm1 Al1 Cu1,"['mp-1216551', 'mp-865402']"
4652,0.0,FeRhO3,Fe1 Rh1 O3,"['mp-1184349', 'mp-973648']"
4653,0.0,NbGaCo2,Nb1 Ga1 Co2,['mp-4364']
4654,0.0,CaHg2,Ca1 Hg2,"['mp-1009651', 'mp-11287']"
4655,0.0,PmCd3,Pm1 Cd3,"['mp-1186561', 'mp-862899']"
4656,0.0,Ti2CoS4,Ti2 Co1 S4,['mp-1025269']
4657,0.0,Mg3Ge,Mg3 Ge1,['mp-642855']
4658,0.0,Ba2FeReO6,Ba2 Fe1 Re1 O6,['mp-31756']
4659,0.0,VZnRu2,V1 Zn1 Ru2,['mp-865486']
4660,0.0,UAl8Fe4,U1 Al8 Fe4,['mp-4606']
4661,0.0,LiCu3F7,Li1 Cu3 F7,['mp-752898']
4662,0.0,Bi2Pt,Bi2 Pt1,"['mp-22864', 'mp-569581', 'mp-568531', 'mp-1078313', 'mp-1092293']"
4663,0.0,LiV2NiO6,Li1 V2 Ni1 O6,"['mp-1565491', 'mp-755467', 'mp-1569466']"
4664,0.0,Si2Ru,Si2 Ru1,"['mp-12874', 'mp-569815', 'mp-7754']"
4665,0.0,Fe3B,Fe3 B1,"['mp-973682', 'mp-1080698', 'mp-1181327']"
4666,0.0,SnSb3(PO4)4,Sn1 Sb3 P4 O16,['mp-772045']
4667,0.0,CsMnSb,Cs1 Mn1 Sb1,['mp-510378']
4668,0.0,Ba6In2NF,Ba6 In2 N1 F1,['mp-996942']
4669,0.0,UFeSi,U1 Fe1 Si1,['mp-20121']
4670,0.0,W2N,W2 N1,['mp-27943']
4671,0.0,Li5Co2O2F5,Li5 Co2 O2 F5,['mp-850204']
4672,0.0,NaFe2(SiO3)4,Na1 Fe2 Si4 O12,"['mp-755636', 'mp-1304778']"
4673,0.0,BeCu,Be1 Cu1,['mp-2323']
4674,0.0,PrSm3,Pr1 Sm3,"['mp-1186487', 'mp-975797', 'mp-975812']"
4675,0.0,YbZnAu2,Yb1 Zn1 Au2,['mp-865431']
4676,0.0,InSiTe3,In1 Si1 Te3,"['mp-567931', 'mp-574250']"
4677,0.0,HgPt3,Hg1 Pt3,"['mp-1066522', 'mp-1007690']"
4678,0.0,Yb2InPd2,Yb2 In1 Pd2,['mp-21267']
4679,0.0,Li11Mn13O32,Li11 Mn13 O32,['mp-531021']
4680,0.0,YScO2,Y1 Sc1 O2,['mp-754671']
4681,0.0,Sb2XeF14,Sb2 Xe1 F14,['mp-27290']
4682,0.0,LiNiP2O7,Li1 Ni1 P2 O7,"['mp-1101598', 'mp-765560', 'mp-759982', 'mp-26162', 'mp-26231', 'mp-705331', 'mp-705295', 'mp-26449', 'mp-757243', 'mp-26007', 'mp-26345', 'mp-32396', 'mp-753784', 'mp-26480', 'mp-766087', 'mp-32314', 'mp-26785', 'mp-26211', 'mp-752902']"
4683,0.0,AlSn,Al1 Sn1,['mp-7760']
4684,0.0,Li3C,Li3 C1,['mp-976060']
4685,0.0,VP,V1 P1,"['mp-1114', 'mp-569402']"
4686,0.0,ZrSe,Zr1 Se1,"['mp-1183040', 'mp-1215280', 'mp-684965']"
4687,0.0,RbPdF3,Rb1 Pd1 F3,['mp-9060']
4688,0.0,DyInCu2,Dy1 In1 Cu2,['mp-22680']
4689,0.0,Zr5Sb3,Zr5 Sb3,"['mp-505759', 'mp-2649']"
4690,0.0,La2PdO4,La2 Pd1 O4,['mp-8672']
4691,0.0,SmHgPd,Sm1 Hg1 Pd1,['mp-567912']
4692,0.0,Mg4Sc3(SiO3)8,Mg4 Sc3 Si8 O24,['mp-773046']
4693,0.0,AgGeO3,Ag1 Ge1 O3,"['mp-779664', 'mp-779706', 'mp-759939', 'mp-1178571']"
4694,0.0,Na3Re,Na3 Re1,"['mp-984106', 'mp-982595']"
4695,0.0,PrGeAu,Pr1 Ge1 Au1,['mp-1019094']
4696,0.0,KNb2O5,K1 Nb2 O5,['mp-773070']
4697,0.0,LaHg,La1 Hg1,['mp-734']
4698,0.0,V3Si,V3 Si1,"['mp-571211', 'mp-2567']"
4699,0.0,ScAlNi2,Sc1 Al1 Ni2,['mp-10898']
4700,0.0,Sm3Zr,Sm3 Zr1,['mp-972461']
4701,0.0,ZnWO2,Zn1 W1 O2,"['mvc-2884', 'mvc-1291']"
4702,0.0,Zr2HBr2,Zr2 H1 Br2,['mp-642803']
4703,0.0,InPt3C,In1 Pt3 C1,['mp-20796']
4704,0.0,BaLa2CoS5,Ba1 La2 Co1 S5,['mp-22423']
4705,0.0,SrZnSb2,Sr1 Zn1 Sb2,"['mp-1179023', 'mp-12275']"
4706,0.0,Ta6Ni16Ge7,Ta6 Ni16 Ge7,['mp-582719']
4707,0.0,Ca5Au2,Ca5 Au2,['mp-30367']
4708,0.0,Rb2NaVF6,Rb2 Na1 V1 F6,['mp-560671']
4709,0.0,Hf54Os17,Hf54 Os17,['mp-568048']
4710,0.0,Rb4Si2CuO7,Rb4 Si2 Cu1 O7,['mp-557618']
4711,0.0,HoCd,Ho1 Cd1,['mp-170']
4712,0.0,Cd2PbO4,Cd2 Pb1 O4,['mp-867731']
4713,0.0,SrSbAu,Sr1 Sb1 Au1,['mp-11815']
4714,0.0,ZrInRh2,Zr1 In1 Rh2,['mp-977543']
4715,0.0,TiAl,Ti1 Al1,"['mp-1953', 'mp-1061123', 'mp-1217008']"
4716,0.0,Li2CrCo3O8,Li2 Cr1 Co3 O8,"['mp-762609', 'mp-1178263', 'mp-761748', 'mp-1302768', 'mp-752954', 'mp-1309291', 'mp-1178130', 'mp-765293']"
4717,0.0,Er2Mg3Ru,Er2 Mg3 Ru1,['mp-1018684']
4718,0.0,Sr2Li2Nb3O10,Sr2 Li2 Nb3 O10,['mp-756684']
4719,0.0,Li2Si4Ni5O14,Li2 Si4 Ni5 O14,"['mp-1652333', 'mp-753450']"
4720,0.0,HoCo3,Ho1 Co3,['mp-30558']
4721,0.0,YbPr11Se16,Yb1 Pr11 Se16,['mp-531712']
4722,0.0,Sm3OsO7,Sm3 Os1 O7,"['mp-555639', 'mp-5447']"
4723,0.0,Al4Cu9,Al4 Cu9,['mp-593']
4724,0.0,LiGaAu2,Li1 Ga1 Au2,['mp-861900']
4725,0.0,Zn2BIr2,Zn2 B1 Ir2,['mp-28787']
4726,0.0,TmCu4Ag,Tm1 Cu4 Ag1,['mp-1025116']
4727,0.0,BaSi,Ba1 Si1,"['mp-1237266', 'mp-1067235', 'mp-2499']"
4728,0.0,Mg2CrN2,Mg2 Cr1 N2,['mvc-15331']
4729,0.0,CeTlZn,Ce1 Tl1 Zn1,['mp-1018669']
4730,0.0,Eu2CaO3,Eu2 Ca1 O3,"['mp-756336', 'mp-756244']"
4731,0.0,TmMg2Sc,Tm1 Mg2 Sc1,['mp-979073']
4732,0.0,CuN2O6,Cu1 N2 O6,"['mp-640926', 'mp-662543']"
4733,0.0,Sm5Br11,Sm5 Br11,['mp-680266']
4734,0.0,Hf3P,Hf3 P1,['mp-504812']
4735,0.0,Ti2C,Ti2 C1,"['mp-10721', 'mp-1217106']"
4736,0.0,NaHg,Na1 Hg1,['mp-255']
4737,0.0,La3Ge3Br2,La3 Ge3 Br2,['mp-672231']
4738,0.0,NdMg2,Nd1 Mg2,['mp-2389']
4739,0.0,Li8Ti16CuS32,Li8 Ti16 Cu1 S32,['mp-774459']
4740,0.0,NdMg2Ni9,Nd1 Mg2 Ni9,['mp-568207']
4741,0.0,YbTlS2,Yb1 Tl1 S2,['mp-16472']
4742,0.0,Li2Fe3SnO8,Li2 Fe3 Sn1 O8,"['mp-756492', 'mp-863443', 'mp-1282869', 'mp-1177962', 'mp-1309506', 'mp-1307940', 'mp-775023', 'mp-773163', 'mp-1273464']"
4743,0.0,NdFeSi2,Nd1 Fe1 Si2,['mp-4196']
4744,0.0,NiGePt2,Ni1 Ge1 Pt2,['mp-29752']
4745,0.0,Dy2MgTl,Dy2 Mg1 Tl1,['mp-867349']
4746,0.0,YbCaInSe4,Yb1 Ca1 In1 Se4,['mp-541276']
4747,0.0,PrCo2Ge2,Pr1 Co2 Ge2,['mp-4810']
4748,0.0,Sm2IO2,Sm2 I1 O2,['mp-553121']
4749,0.0,TbCu5,Tb1 Cu5,"['mp-1077262', 'mp-11363']"
4750,0.0,Pr5In11Ni6,Pr5 In11 Ni6,['mp-616210']
4751,0.0,YAgO3,Y1 Ag1 O3,"['mvc-3470', 'mp-1094009', 'mvc-13858', 'mvc-15521']"
4752,0.0,Be2HgTe,Be2 Hg1 Te1,['mp-631516']
4753,0.0,AlIr,Al1 Ir1,['mp-1885']
4754,0.0,CsInI3,Cs1 In1 I3,"['mp-1112643', 'mp-998314', 'mp-998430']"
4755,0.0,Tl3Cr,Tl3 Cr1,['mp-972130']
4756,0.0,ZrSi2,Zr1 Si2,['mp-1515']
4757,0.0,Zn2Ni9O13,Zn2 Ni9 O13,['mvc-2294']
4758,0.0,CoP4O12,Co1 P4 O12,"['mvc-2202', 'mp-31572', 'mp-584727', 'mp-26998', 'mp-26724', 'mp-26432', 'mp-504346']"
4759,0.0,Nb3Fe20B6,Nb3 Fe20 B6,['mp-21666']
4760,0.0,YbPO4,Yb1 P1 O4,"['mp-4179', 'mp-12523']"
4761,0.0,Y3Al3NiGe2,Y3 Al3 Ni1 Ge2,['mp-10209']
4762,0.0,Ce3MnAlS7,Ce3 Mn1 Al1 S7,['mp-866500']
4763,0.0,Li7Ti7O16,Li7 Ti7 O16,['mp-34052']
4764,0.0,GaFe3,Ga1 Fe3,"['mp-19870', 'mp-672661', 'mp-1224892', 'mp-1078766']"
4765,0.0,Na15Sn4,Na15 Sn4,['mp-30794']
4766,0.0,ErAgSn,Er1 Ag1 Sn1,"['mp-13265', 'mp-569724', 'mp-1225590']"
4767,0.0,Dy5Pb3,Dy5 Pb3,['mp-569760']
4768,0.0,Ba3Li4Sn8,Ba3 Li4 Sn8,['mp-30254']
4769,0.0,Li6FeO6,Li6 Fe1 O6,['mp-771897']
4770,0.0,NiP4O12,Ni1 P4 O12,"['mp-504269', 'mp-26364', 'mp-695808', 'mp-540079', 'mp-32343', 'mp-26686']"
4771,0.0,Sm2P3Pt6,Sm2 P3 Pt6,['mp-570141']
4772,0.0,CaZn2,Ca1 Zn2,"['mp-13364', 'mp-1725']"
4773,0.0,Nd4Ge3Rh4,Nd4 Ge3 Rh4,['mp-3375']
4774,0.0,ErZn12,Er1 Zn12,['mp-30614']
4775,0.0,PtN,Pt1 N1,"['mp-13174', 'mp-13175', 'mp-13173']"
4776,0.0,Ag3AsO4,Ag3 As1 O4,"['mp-1229124', 'mp-5408']"
4777,0.0,Ca3In,Ca3 In1,['mp-20581']
4778,0.0,LaCu6,La1 Cu6,"['mp-30590', 'mp-636256']"
4779,0.0,PrFe2Si2,Pr1 Fe2 Si2,['mp-5627']
4780,0.0,Li3Ti3(PO4)4,Li3 Ti3 P4 O16,"['mp-758035', 'mp-758357']"
4781,0.0,Hf2Ge,Hf2 Ge1,"['mp-1072256', 'mp-9939']"
4782,0.0,Zr5Sn4,Zr5 Sn4,['mp-543001']
4783,0.0,PrCd,Pr1 Cd1,['mp-646']
4784,0.0,Nb2Co3O9,Nb2 Co3 O9,['mvc-13231']
4785,0.0,SmMn2Ge2,Sm1 Mn2 Ge2,['mp-20646']
4786,0.0,Li3CrCo3O8,Li3 Cr1 Co3 O8,"['mp-1321265', 'mp-759149', 'mp-1275494', 'mp-1314550', 'mp-849768']"
4787,0.0,Ag3Pd,Ag3 Pd1,"['mp-985296', 'mp-1183206']"
4788,0.0,Al3Tc,Al3 Tc1,['mp-867347']
4789,0.0,Li3Co(NiO2)4,Li3 Co1 Ni4 O8,['mp-756787']
4790,0.0,NdIn3,Nd1 In3,['mp-21197']
4791,0.0,CrCoPt2,Cr1 Co1 Pt2,"['mp-570863', 'mp-1226287']"
4792,0.0,Sm2RuAu,Sm2 Ru1 Au1,['mp-978824']
4793,0.0,SrSb12Ru4,Sr1 Sb12 Ru4,['mp-22775']
4794,0.0,La2PC,La2 P1 C1,['mp-866691']
4795,0.0,Tm2Ru2O7,Tm2 Ru2 O7,['mp-555716']
4796,0.0,YbFe4Ge2,Yb1 Fe4 Ge2,['mp-613612']
4797,0.0,Sc6NiTe2,Sc6 Ni1 Te2,['mp-10446']
4798,0.0,ZnSn3,Zn1 Sn3,"['mp-1187976', 'mp-980905', 'mp-971919']"
4799,0.0,Li2Nb2(PO4)3,Li2 Nb2 P3 O12,['mp-776371']
4800,0.0,YB2Rh2C,Y1 B2 Rh2 C1,['mp-12737']
4801,0.0,Ba3NaIr2O9,Ba3 Na1 Ir2 O9,"['mp-21876', 'mp-20529']"
4802,0.0,Ce2Sb,Ce2 Sb1,['mp-22678']
4803,0.0,BaTi4O8,Ba1 Ti4 O8,['mvc-610']
4804,0.0,AlPd5I2,Al1 Pd5 I2,['mp-27393']
4805,0.0,Ti2ReRu,Ti2 Re1 Ru1,['mp-972275']
4806,0.0,Ca3BiAs,Ca3 Bi1 As1,"['mp-1013703', 'mp-1013545']"
4807,0.0,Yb3V,Yb3 V1,"['mp-979941', 'mp-979945', 'mp-979942']"
4808,0.0,Cu8O,Cu8 O1,"['mp-31217', 'mp-704745']"
4809,0.0,InSiIr,In1 Si1 Ir1,['mp-631255']
4810,0.0,Ta4FeTe4,Ta4 Fe1 Te4,['mp-28964']
4811,0.0,CsMg149,Cs1 Mg149,['mp-978251']
4812,0.0,La3Os2O10,La3 Os2 O10,['mp-27330']
4813,0.0,Mg2MnN2,Mg2 Mn1 N2,['mvc-14629']
4814,0.0,HoSi2Os2,Ho1 Si2 Os2,['mp-5219']
4815,0.0,Li2Fe2(PO4)3,Li2 Fe2 P3 O12,"['mp-776769', 'mp-849334', 'mp-771817', 'mp-759437']"
4816,0.0,SrCe2S4,Sr1 Ce2 S4,['mp-33392']
4817,0.0,BaAu2,Ba1 Au2,['mp-30363']
4818,0.0,ErNi4Au,Er1 Ni4 Au1,['mp-1025001']
4819,0.0,PrMn2Si2,Pr1 Mn2 Si2,['mp-5423']
4820,0.0,ZrFe4Si2,Zr1 Fe4 Si2,['mp-19792']
4821,0.0,P2O5,P2 O5,"['mp-562613', 'mp-2452', 'mp-1244897', 'mp-990076', 'mp-1245177', 'mp-2173', 'mp-689684', 'mp-1245245', 'mp-1245218']"
4822,0.0,Hg3C,Hg3 C1,"['mp-973461', 'mp-973450']"
4823,0.0,NdCr2Si2,Nd1 Cr2 Si2,['mp-570399']
4824,0.0,Ca2GeN2,Ca2 Ge1 N2,['mp-29809']
4825,0.0,NaSn2,Na1 Sn2,['mp-583168']
4826,0.0,TiCr3(PO4)6,Ti1 Cr3 P6 O24,['mp-773127']
4827,0.0,Nd2Ru2O7,Nd2 Ru2 O7,['mp-19930']
4828,0.0,HfZnNi2,Hf1 Zn1 Ni2,['mp-864807']
4829,0.0,EuAl2Au2,Eu1 Al2 Au2,['mp-13485']
4830,0.0,KFe2As2,K1 Fe2 As2,['mp-35276']
4831,0.0,GdCd2,Gd1 Cd2,['mp-20965']
4832,0.0,Sc3GaC,Sc3 Ga1 C1,['mp-8577']
4833,0.0,PrGe3,Pr1 Ge3,['mp-976061']
4834,0.0,Hf2Co4P3,Hf2 Co4 P3,['mp-18581']
4835,0.0,Tb3Si,Tb3 Si1,['mp-972310']
4836,0.0,VNi5(PO4)6,V1 Ni5 P6 O24,['mp-768351']
4837,0.0,TbGe2Pd2,Tb1 Ge2 Pd2,['mp-5351']
4838,0.0,EuFe2Si2,Eu1 Fe2 Si2,['mp-582357']
4839,0.0,TbTl,Tb1 Tl1,['mp-30878']
4840,0.0,Ca3Al2Ge3,Ca3 Al2 Ge3,['mp-27997']
4841,0.0,Cs2NaMnF6,Cs2 Na1 Mn1 F6,"['mp-554858', 'mp-554302']"
4842,0.0,Al5Rh2,Al5 Rh2,['mp-1791']
4843,0.0,MgFe2S4,Mg1 Fe2 S4,"['mvc-16782', 'mvc-12970']"
4844,0.0,SmLuTl2,Sm1 Lu1 Tl2,['mp-978544']
4845,0.0,Ag7S2I2,Ag7 S2 I2,['mp-675987']
4846,0.0,TiI,Ti1 I1,['mp-980194']
4847,0.0,Mo5O14,Mo5 O14,"['mp-30544', 'mp-1239172']"
4848,0.0,LiCd2Rh,Li1 Cd2 Rh1,['mp-867115']
4849,0.0,Lu5Si3B,Lu5 Si3 B1,['mp-13234']
4850,0.0,InFe2CuSe4,In1 Fe2 Cu1 Se4,['mp-22611']
4851,0.0,La3NiBr3,La3 Ni1 Br3,['mp-866714']
4852,0.0,LiMnCuO4,Li1 Mn1 Cu1 O4,['mp-773500']
4853,0.0,Mn2Hg5,Mn2 Hg5,['mp-30720']
4854,0.0,Na11Bi5O16,Na11 Bi5 O16,['mp-777789']
4855,0.0,Ca2PbAu2,Ca2 Pb1 Au2,['mp-20723']
4856,0.0,Hf3Si4Cu4,Hf3 Si4 Cu4,['mp-10245']
4857,0.0,Cu2HgGeSe4,Cu2 Hg1 Ge1 Se4,['mp-12855']
4858,0.0,Na2In,Na2 In1,['mp-31430']
4859,0.0,KHg2,K1 Hg2,['mp-30717']
4860,0.0,Sm3AlN,Sm3 Al1 N1,"['mp-10674', 'mp-1094052']"
4861,0.0,LuMnSi,Lu1 Mn1 Si1,['mp-19967']
4862,0.0,CaMn2As2,Ca1 Mn2 As2,['mp-5498']
4863,0.0,AlAs,Al1 As1,"['mp-2172', 'mp-11209', 'mp-988939', 'mp-988940', 'mp-8881', 'mp-988945']"
4864,0.0,AlFe4(CuO4)3,Al1 Fe4 Cu3 O12,['mp-1260716']
4865,0.0,SmNi2B2C,Sm1 Ni2 B2 C1,['mp-9220']
4866,0.0,La2Nb2N2O5,La2 Nb2 N2 O5,"['mp-849661', 'mp-775911', 'mp-776823', 'mp-849727', 'mp-775975', 'mp-775929', 'mp-778375']"
4867,0.0,SmSi3Pt5,Sm1 Si3 Pt5,['mp-15442']
4868,0.0,Pr2Au,Pr2 Au1,['mp-2714']
4869,0.0,UAlNi4,U1 Al1 Ni4,['mp-16519']
4870,0.0,Ba2ScIrO6,Ba2 Sc1 Ir1 O6,['mp-10302']
4871,0.0,MgTl,Mg1 Tl1,['mp-11498']
4872,0.0,Na6CoSe4,Na6 Co1 Se4,['mp-3017']
4873,0.0,Li3V4FeO12,Li3 V4 Fe1 O12,"['mp-1177479', 'mp-1667426', 'mp-1568159', 'mp-774648']"
4874,0.0,PrTmTl2,Pr1 Tm1 Tl2,['mp-975793']
4875,0.0,Sm3Sb14Te24,Sm3 Sb14 Te24,['mp-675760']
4876,0.0,TiPd,Ti1 Pd1,"['mp-11546', 'mp-1056985', 'mp-979261', 'mp-980094']"
4877,0.0,HfTl3,Hf1 Tl3,['mp-982930']
4878,0.0,HfNi5,Hf1 Ni5,['mp-569516']
4879,0.0,SrLa3MnO8,Sr1 La3 Mn1 O8,['mp-753578']
4880,0.0,CaGa3Ni2,Ca1 Ga3 Ni2,['mp-11431']
4881,0.0,NdTe,Nd1 Te1,['mp-570']
4882,0.0,Eu2CuO4,Eu2 Cu1 O4,['mp-22306']
4883,0.0,Nb3V(PO4)6,Nb3 V1 P6 O24,['mp-850405']
4884,0.0,YbLa5S8,Yb1 La5 S8,['mp-676443']
4885,0.0,ScZn3,Sc1 Zn3,"['mp-862260', 'mp-973143']"
4886,0.0,Bi12Rh12O41,Bi12 Rh12 O41,"['mp-686044', 'mp-760121']"
4887,0.0,HoSb2O6,Ho1 Sb2 O6,['mvc-10003']
4888,0.0,CsCaO3,Cs1 Ca1 O3,['mp-984240']
4889,0.0,Li13Nb14ZnO42,Li13 Nb14 Zn1 O42,['mp-768142']
4890,0.0,LuPt3,Lu1 Pt3,['mp-790']
4891,0.0,PrIr2,Pr1 Ir2,['mp-946']
4892,0.0,V3Pt,V3 Pt1,"['mp-636331', 'mp-2211']"
4893,0.0,SrB2,Sr1 B2,['mp-1008755']
4894,0.0,Tl8Os8O27,Tl8 Os8 O27,['mp-757458']
4895,0.0,Yb6U3O17,Yb6 U3 O17,['mp-675015']
4896,0.0,Mg2CuWO6,Mg2 Cu1 W1 O6,"['mvc-6178', 'mvc-5013']"
4897,0.0,Ba2FeMoO6,Ba2 Fe1 Mo1 O6,"['mp-1279869', 'mp-18995', 'mp-1289745', 'mp-1299167']"
4898,0.0,TmFe2Si2,Tm1 Fe2 Si2,['mp-2938']
4899,0.0,Ta2OsW,Ta2 Os1 W1,['mp-864650']
4900,0.0,EuNi2As2,Eu1 Ni2 As2,['mp-6992']
4901,0.0,LuHfRu2,Lu1 Hf1 Ru2,['mp-865846']
4902,0.0,Sn3Pd,Sn3 Pd1,['mp-1371']
4903,0.0,Ca6Ag16N,Ca6 Ag16 N1,['mp-542496']
4904,0.0,HfVSi,Hf1 V1 Si1,"['mp-1018720', 'mp-1224260']"
4905,0.0,TmCu2Ge2,Tm1 Cu2 Ge2,"['mp-567840', 'mp-567808']"
4906,0.0,Na3Tl,Na3 Tl1,"['mp-1186088', 'mp-977403', 'mp-982873', 'mp-982773']"
4907,0.0,Te2Mo2WSe4,Te2 Mo2 W1 Se4,"['mp-1025668', 'mp-1025779', 'mp-1025774', 'mp-1025754', 'mp-1025885']"
4908,0.0,Ru3Cl,Ru3 Cl1,['mp-974467']
4909,0.0,Nb5OF14,Nb5 O1 F14,['mp-756988']
4910,0.0,LiBi2(PO4)3,Li1 Bi2 P3 O12,"['mp-26301', 'mp-585241', 'mp-504151', 'mp-26285', 'mp-540013']"
4911,0.0,ReF6,Re1 F6,"['mp-1209252', 'mp-1025374']"
4912,0.0,CaHfZn,Ca1 Hf1 Zn1,['mp-631515']
4913,0.0,SrMgIn3,Sr1 Mg1 In3,['mp-571443']
4914,0.0,K2B10H9O,K2 B10 H9 O1,['mp-705892']
4915,0.0,SiSb3,Si1 Sb3,['mp-972794']
4916,0.0,Sc8Te3,Sc8 Te3,['mp-541594']
4917,0.0,Fe12As5,Fe12 As5,['mp-17977']
4918,0.0,Li2Fe5O10,Li2 Fe5 O10,['mp-762529']
4919,0.0,Zr2Co12P7,Zr2 Co12 P7,['mp-972631']
4921,0.0,DyCoSi2,Dy1 Co1 Si2,['mp-8742']
4922,0.0,ScSnPd,Sc1 Sn1 Pd1,['mp-17092']
4923,0.0,TaAlPt,Ta1 Al1 Pt1,['mp-961679']
4924,0.0,Ba2UCuO6,Ba2 U1 Cu1 O6,"['mp-9238', 'mp-22272', 'mp-1205359']"
4925,0.0,Co2B4Mo,Co2 B4 Mo1,['mp-10055']
4926,0.0,Li2MgIn,Li2 Mg1 In1,['mp-12128']
4927,0.0,YCdPd2,Y1 Cd1 Pd2,['mp-865520']
4928,0.0,UMn2Si2,U1 Mn2 Si2,['mp-5683']
4929,0.0,Ge2Os,Ge2 Os1,['mp-10032']
4930,0.0,Na6FeS4,Na6 Fe1 S4,['mp-9266']
4931,0.0,TbBe13,Tb1 Be13,['mp-12615']
4932,0.0,NbSi2,Nb1 Si2,"['mp-12104', 'mp-2478']"
4933,0.0,Te2Pd3,Te2 Pd3,['mp-613']
4934,0.0,BaFe2S4,Ba1 Fe2 S4,"['mp-676036', 'mp-675078', 'mp-27660']"
4935,0.0,ScSbRh2,Sc1 Sb1 Rh2,['mp-862635']
4936,0.0,Ti2Sb(PO4)3,Ti2 Sb1 P3 O12,['mp-773711']
4937,0.0,Rb5W8O30,Rb5 W8 O30,['mp-674969']
4938,0.0,TmPd,Tm1 Pd1,['mp-348']
4939,0.0,Hf2ReRh,Hf2 Re1 Rh1,['mp-977407']