,Eg (eV),Comp,composition,mp_ids
1460,1.6,AsSb,As1 Sb1,['mp-1219457']
1461,1.6,NaSbSe2,Na1 Sb1 Se2,"['mp-1220874', 'mp-1220879', 'mp-33333']"
1462,1.6,HgSnO3,Hg1 Sn1 O3,"['mp-1016837', 'mp-13554']"
1463,1.6,Cs2Cu2Sb2S5,Cs2 Cu2 Sb2 S5,['mp-1190579']
1464,1.6,EuYb2S4,Eu1 Yb2 S4,"['mp-1194516', 'mp-676878']"
1465,1.6,NaInTe2,Na1 In1 Te2,['mp-22483']
1466,1.6,In0.1P0.1Ga0.9As0.9,In0.1 P0.1 Ga0.9 As0.9,0
1467,1.6,La2O2MnSe2,La2 O2 Mn1 Se2,"['mp-1223368', 'mp-1196301']"
1468,1.6,BaCuSbSe3,Ba1 Cu1 Sb1 Se3,0
1469,1.6,Rb2Cu2Sb2S5,Rb2 Cu2 Sb2 S5,['mp-1195291']
1470,1.6,Tl2TeS3,Tl2 Te1 S3,['mp-17172']
1471,1.6,Tb2Mo3O12,Tb2 Mo3 O12,"['mp-3114', 'mp-1197851']"
1472,1.6,BaGa2SnSe6,Ba1 Ga2 Sn1 Se6,0
1473,1.6,Ba3Ta2Se9,Ba3 Ta2 Se9,0
1474,1.6,CsGeI3,Cs1 Ge1 I3,"['mp-28377', 'mp-642690']"
1475,1.6,Cd0.99Te0.99Al0.01Sb0.01,Cd0.99 Te0.99 Al0.01 Sb0.01,0
1476,1.6,RbCuSb2S4,Rb1 Cu1 Sb2 S4,0
1477,1.6,Pb2BiS2I3,Pb2 Bi1 S2 I3,0
1478,1.6,Na0.5Pb1.75GeSe4,Na0.5 Pb1.75 Ge1 Se4,0
1479,1.6,LiPbSb3S6,Li1 Pb1 Sb3 S6,0
1480,1.6,Ga0.85Al0.15As,Ga0.85 Al0.15 As1,0
1481,1.6,Cs3Sb,Cs3 Sb1,['mp-10378']
1482,1.6,CsYbMnSe3,Cs1 Yb1 Mn1 Se3,['mp-1213115']
1483,1.6,Cs2PdP2Se6,Cs2 Pd1 P2 Se6,0
1484,1.59,Rb4Ti3S14,Rb4 Ti3 S14,['mp-542067']
1485,1.59,Cu0.9Ga1.1Se2.1,Cu0.9 Ga1.1 Se2.1,0
1486,1.59,Cu0.99Ga1.01Se2.01,Cu0.99 Ga1.01 Se2.01,0
1487,1.59,Cr3Se4,Cr3 Se4,['mp-27840']
1488,1.58,SeTe,Se1 Te1,['mp-1217322']
1489,1.58,Ag2.7Ba6Sn4.3S16,Ag2.7 Ba6 Sn4.3 S16,0
1490,1.58,In0.7P0.7Ga0.3As0.3,In0.7 P0.7 Ga0.3 As0.3,0
1491,1.58,ZnYBiO4,Zn1 Y1 Bi1 O4,0
1492,1.58,Cu0.8Ga1.2Se2.2,Cu0.8 Ga1.2 Se2.2,0
1493,1.58,In0.2P0.2Ga0.8As0.8,In0.2 P0.2 Ga0.8 As0.8,0
1494,1.57,AgO,Ag1 O1,"['mp-8222', 'mp-1065190', 'mp-1066856', 'mp-1288', 'mp-499', 'mp-1079720']"
1495,1.57,RbCd4In5Se12,Rb1 Cd4 In5 Se12,0
1496,1.57,Hg5AsS2I3,Hg5 As1 S2 I3,0
1497,1.57,Nd4InSbSe9,Nd4 In1 Sb1 Se9,0
1498,1.57,Li0.2Na0.8AsSe2,Li0.2 Na0.8 As1 Se2,0
1499,1.57,Tl2Hg3Se4,Tl2 Hg3 Se4,['mp-1105692']
1500,1.57,SiAs,Si1 As1,['mp-1863']
1501,1.56,Cu3YbS3,Cu3 Yb1 S3,['mp-1215814']
1502,1.56,BaHgSe2,Ba1 Hg1 Se2,0
1503,1.56,Gd1.87Lu2.13Se6,Gd1.87 Lu2.13 Se6,0
1504,1.56,PrLuSe3,Pr1 Lu1 Se3,['mp-13326']
1505,1.56,BiSI,Bi1 S1 I1,['mp-23514']
1506,1.55,Ca3N2,Ca3 N2,"['mp-13146', 'mp-1013524', 'mp-568172', 'mp-13148', 'mp-844', 'mp-568293', 'mp-1047']"
1508,1.55,Ba2BiInS5,Ba2 Bi1 In1 S5,['mp-864638']
1509,1.55,CuGa0.4In1.6S3.5,Cu1 Ga0.4 In1.6 S3.5,0
1510,1.55,AgScP2Se6,Ag1 Sc1 P2 Se6,['mp-13383']
1511,1.55,TiSe2,Ti1 Se2,['mp-2194']
1512,1.55,CsMn4Ga5Te12,Cs1 Mn4 Ga5 Te12,0
1513,1.54,KCeSe4,K1 Ce1 Se4,['mp-22395']
1514,1.54,GdN,Gd1 N1,['mp-940']
1515,1.54,BaIr2Ge4S6,Ba1 Ir2 Ge4 S6,0
1516,1.53,Rb2BaNb2Se11,Rb2 Ba1 Nb2 Se11,['mp-571293']
1517,1.53,K3Nb2AsSe11,K3 Nb2 As1 Se11,['mp-542545']
1518,1.53,RbMn4Ga5Te12,Rb1 Mn4 Ga5 Te12,0
1519,1.52,NaAsSe2,Na1 As1 Se2,"['mp-1220807', 'mp-27374', 'mp-34663', 'mp-984519']"
1520,1.52,Ga0.5As0.5Zn0.5Se0.5,Ga0.5 As0.5 Zn0.5 Se0.5,0
1521,1.52,Ba6Sn6Se13,Ba6 Sn6 Se13,['mp-1196224']
1522,1.51,Sm1.82Lu2.18Se6,Sm1.82 Lu2.18 Se6,0
1523,1.51,As2B12,As2 B12,['mp-624']
1524,1.51,Ga0.75As0.75Zn0.25Se0.25,Ga0.75 As0.75 Zn0.25 Se0.25,0
1525,1.51,Ag0.5Pb1.75GeSe4,Ag0.5 Pb1.75 Ge1 Se4,0
1526,1.51,TlScS2,Tl1 Sc1 S2,['mp-13312']
1527,1.5,Rb3Nb2AsSe11,Rb3 Nb2 As1 Se11,['mp-683902']
1528,1.5,Nd1.33Lu0.67S3,Nd1.33 Lu0.67 S3,0
1529,1.5,GaAs0.9P0.1,Ga1 As0.9 P0.1,0
1530,1.5,CdSnP2,Cd1 Sn1 P2,['mp-5213']
1531,1.5,InBi2S4Cl,In1 Bi2 S4 Cl1,['mp-559521']
1532,1.5,ZrSe3,Zr1 Se3,['mp-1683']
1533,1.5,LaZnAsO,La1 Zn1 As1 O1,['mp-549589']
1534,1.5,InP,In1 P1,"['mp-20457', 'mp-966800', 'mp-20351']"
1535,1.5,CdTlS2,Cd1 Tl1 S2,"['mp-998928', 'mp-7708']"
1536,1.5,Cs2TeI6,Cs2 Te1 I6,['mp-540957']
1537,1.5,Gd3.04Sc0.96S6,Gd3.04 Sc0.96 S6,0
1538,1.5,BiSeBr,Bi1 Se1 Br1,['mp-569707']
1539,1.5,Cs2PdSe8,Cs2 Pd1 Se8,['mp-31285']
1540,1.5,Rh0.67S2,Rh0.67 S2,0
1541,1.5,InBi2S4Br,In1 Bi2 S4 Br1,['mp-1206068']
1542,1.5,RhS3,Rh1 S3,0
1543,1.5,YbSe,Yb1 Se1,"['mp-10648', 'mp-286']"
1544,1.5,UO,U1 O1,['mp-7830']
1545,1.5,CdTe,Cd1 Te1,"['mp-406', 'mp-685146', 'mp-1492', 'mp-2388', 'mp-1066480', 'mp-1226722', 'mp-12581', 'mp-1008471', 'mp-12779']"
1546,1.5,Pb2MnO4,Pb2 Mn1 O4,['mp-21823']
1547,1.5,GeI2,Ge1 I2,"['mp-1540935', 'mp-27922', 'mp-567677']"
1548,1.5,AgPdI3O9,Ag1 Pd1 I3 O9,0
1549,1.5,In0.9Al0.1P,In0.9 Al0.1 P1,0
1550,1.5,Ag2O,Ag2 O1,"['mp-353', 'mp-38238', 'mp-754338', 'mp-7711']"
1551,1.5,CsLuCoS3,Cs1 Lu1 Co1 S3,0
1552,1.5,Sn2SbS2I3,Sn2 Sb1 S2 I3,"['mp-1219046', 'mp-561134']"
1553,1.5,CuInS2,Cu1 In1 S2,"['mp-22736', 'mp-1097021']"
1554,1.5,Na7.36Ga7.24Sn4.78Se24,Na7.36 Ga7.24 Sn4.78 Se24,0
1555,1.5,CdSiAs2,Cd1 Si1 As2,['mp-3078']
1556,1.5,EuIn2S4,Eu1 In2 S4,0
1557,1.5,AgIn9Te14,Ag1 In9 Te14,0
1558,1.5,Rb2CsSb,Rb2 Cs1 Sb1,['mp-984761']
1559,1.5,EuLiH3,Eu1 Li1 H3,['mp-541365']
1560,1.5,Ge0.774Si0.226,Ge0.774 Si0.226,0
1561,1.5,Sm2Mn3Sb4S12,Sm2 Mn3 Sb4 S12,['mp-1192255']
1562,1.48,NaSbS2,Na1 Sb1 S2,"['mp-1173513', 'mp-557179', 'mp-5414', 'mp-1220873']"
1563,1.48,CsMn4In5Te12,Cs1 Mn4 In5 Te12,0
1564,1.48,Cu0.5Pb1.75GeS4,Cu0.5 Pb1.75 Ge1 S4,0
1565,1.48,K2PdSe10,K2 Pd1 Se10,['mp-505138']
1566,1.47,Tl2TeI6,Tl2 Te1 I6,['mp-31077']
1567,1.47,Cu2ZnSiTe4,Cu2 Zn1 Si1 Te4,['mp-1078498']
1568,1.47,AgP15,Ag1 P15,['mp-1195243']
1569,1.47,CuGaO2,Cu1 Ga1 O2,"['mp-1105229', 'mp-11019', 'mp-4280']"
1570,1.47,K2Cu2Sn2S6,K2 Cu2 Sn2 S6,0
1571,1.47,Ga0.85As0.85Zn0.15Se0.15,Ga0.85 As0.85 Zn0.15 Se0.15,0
1572,1.47,CuNb3O8,Cu1 Nb3 O8,['mp-27383']
1573,1.46,KCu3S2,K1 Cu3 S2,['mp-9868']
1574,1.46,LiInTe2,Li1 In1 Te2,['mp-20782']
1575,1.46,GaAs,Ga1 As1,"['mp-1059094', 'mp-1244899', 'mp-1245274', 'mp-15619', 'mp-2534', 'mp-1232355', 'mp-10048', 'mp-1245074', 'mp-1245314', 'mp-603640', 'mp-8883', 'mp-1244999']"
1576,1.46,BAs,B1 As1,"['mp-984718', 'mp-10044']"
1577,1.45,PbMnIn2S5,Pb1 Mn1 In2 S5,0
1578,1.45,Ga2Te3,Ga2 Te3,"['mp-32580', 'mp-38970', 'mp-1070116']"
1579,1.45,RbCu2VS4,Rb1 Cu2 V1 S4,['mp-15998']
1580,1.45,Hg4As2CdI4,Hg4 As2 Cd1 I4,['mp-570838']
1581,1.45,GeAs,Ge1 As1,"['mp-7591', 'mp-9548']"
1582,1.45,Ca3La2Sn3S12,Ca3 La2 Sn3 S12,0
1583,1.45,Cu0.01In1.99Se2.99,Cu0.01 In1.99 Se2.99,0
1584,1.45,ThOTe,Th1 O1 Te1,['mp-3718']
1585,1.45,Ba4CuGa5Se12,Ba4 Cu1 Ga5 Se12,0
1586,1.45,PbO2,Pb1 O2,"['mp-20158', 'mp-20633', 'mp-1180019', 'mp-20725']"
1587,1.45,La2YbCuS5,La2 Yb1 Cu1 S5,0
1588,1.45,K3Ta2AsSe11,K3 Ta2 As1 Se11,['mp-683905']
1589,1.45,Bi14.7In11.3S38,Bi14.7 In11.3 S38,0
1590,1.45,Cu0.1In1.9Se2.9,Cu0.1 In1.9 Se2.9,0
1591,1.44,Cu2ZnSnSe4,Cu2 Zn1 Sn1 Se4,"['mp-1078918', 'mp-16564']"
1592,1.44,TlInSe2,Tl1 In1 Se2,"['mp-568517', 'mp-22232']"
1593,1.44,Gd2Mn4S7,Gd2 Mn4 S7,0
1594,1.44,Rb2Cu2Sn2S6,Rb2 Cu2 Sn2 S6,['mp-541407']
1595,1.43,Ba2GaBiTe5,Ba2 Ga1 Bi1 Te5,['mp-1202829']
1596,1.43,Dy4S4Te3,Dy4 S4 Te3,['mp-1095296']
1597,1.43,CuIn2S3.5,Cu1 In2 S3.5,0
1598,1.43,Ag2SnS3,Ag2 Sn1 S3,0
1599,1.43,In0.01P0.01Ga0.99As0.99,In0.01 P0.01 Ga0.99 As0.99,0
1600,1.42,Bi3In4S10,Bi3 In4 S10,['mp-1224757']
1601,1.42,GaTc,Ga1 Tc1,['mp-867841']
1602,1.42,CsCd4In5Te12,Cs1 Cd4 In5 Te12,0
1603,1.42,SnS,Sn1 S1,"['mp-1876', 'mp-1379', 'mp-559676', 'mp-10013', 'mp-2231', 'mp-1064497', 'mp-554134', 'mp-8781']"
1604,1.42,Li2FeGeS4,Li2 Fe1 Ge1 S4,['mp-1105387']
1605,1.41,Sm2ZrSe5,Sm2 Zr1 Se5,['mp-1198078']
1606,1.41,UP2S9,U1 P2 S9,0
1607,1.41,UP2S7,U1 P2 S7,['mp-1195782']
1608,1.4,Hg0.2Zn0.8Te,Hg0.2 Zn0.8 Te1,0
1609,1.4,OsPS,Os1 P1 S1,['mp-1102534']
1610,1.4,Ce2Te3,Ce2 Te3,"['mp-32838', 'mp-1188216']"
1611,1.4,CrO3,Cr1 O3,"['mvc-11548', 'mp-755211', 'mp-772550', 'mp-778667', 'mp-756041', 'mp-753740', 'mvc-13999', 'mp-715566', 'mvc-11097', 'mp-510421', 'mvc-13134']"
1612,1.4,Ag5IO6,Ag5 I1 O6,['mp-554648']
1613,1.4,Cu2CdSnS4,Cu2 Cd1 Sn1 S4,['mp-1078292']
1614,1.4,PdPS,Pd1 P1 S1,['mp-7280']
1615,1.4,Mg3P2,Mg3 P2,"['mp-8085', 'mp-2514']"
1616,1.4,Tl2Cu2SnS4,Tl2 Cu2 Sn1 S4,['mp-18240']
1617,1.4,AgBiP2Se6,Ag1 Bi1 P2 Se6,['mp-569126']
1618,1.4,AgAsSe2,Ag1 As1 Se2,['mp-4483']
1619,1.4,K8Al8Si38,K8 Al8 Si38,0
1620,1.4,TlAsSe2,Tl1 As1 Se2,['mp-30236']
1621,1.4,In0.8P0.8Ga0.2As0.2,In0.8 P0.8 Ga0.2 As0.2,0
1622,1.4,CuP2,Cu1 P2,['mp-927']
1623,1.4,NbSe2,Nb1 Se2,"['mp-2207', 'mp-1186234', 'mp-10228', 'mp-643063', 'mp-672271', 'mp-7007', 'mp-571270', 'mp-568347', 'mp-1102559', 'mp-571133', 'mp-1072113', 'mp-7597']"
1624,1.4,Rb2TeI6,Rb2 Te1 I6,['mp-28070']
1625,1.4,TlN,Tl1 N1,"['mp-1017982', 'mp-1206907', 'mp-1002222', 'mp-1007778']"
1626,1.4,CdSb2Se3Br2,Cd1 Sb2 Se3 Br2,['mp-567556']
1627,1.4,LiCa3As2H,Li1 Ca3 As2 H1,['mp-1192528']
1628,1.4,Ca3Sb2,Ca3 Sb2,['mp-1013546']
1629,1.4,OsPSe,Os1 P1 Se1,['mp-1101841']
1630,1.4,Ga0.99In0.01As,Ga0.99 In0.01 As1,0
1631,1.4,Zn0.8Hg0.2Se,Zn0.8 Hg0.2 Se1,0
1632,1.4,K9Bi13S24,K9 Bi13 S24,0
1633,1.4,K4P8Te4,K4 P8 Te4,['mp-1188829']
1634,1.4,Zn0.75Hg0.25Se,Zn0.75 Hg0.25 Se1,0
1635,1.4,RuPS,Ru1 P1 S1,['mp-1095584']
1636,1.4,CsBiS2,Cs1 Bi1 S2,['mp-541378']
1637,1.39,Cu2ZnSnTe4,Cu2 Zn1 Sn1 Te4,['mp-1079468']
1638,1.39,Ba2AsGaSe5,Ba2 As1 Ga1 Se5,['mp-1195309']
1639,1.39,Ba5Ga6GeP12,Ba5 Ga6 Ge1 P12,0
1640,1.39,Ga0.99As0.99Zn0.01Se0.01,Ga0.99 As0.99 Zn0.01 Se0.01,0
1641,1.38,In2Bi3Se7I,In2 Bi3 Se7 I1,['mp-1198248']
1642,1.38,CuGaGeSe4,Cu1 Ga1 Ge1 Se4,['mp-1224851']
1643,1.38,Pr1.29Lu0.71S3,Pr1.29 Lu0.71 S3,0
1644,1.38,Cs2Cu3DyTe4,Cs2 Cu3 Dy1 Te4,0
1645,1.38,CuSbS2,Cu1 Sb1 S2,['mp-4468']
1646,1.38,K2TeI6,K2 Te1 I6,['mp-27688']
1647,1.37,Cd0.95Te0.95Al0.05Sb0.05,Cd0.95 Te0.95 Al0.05 Sb0.05,0
1648,1.37,GaAs0.01Sb0.99,Ga1 As0.01 Sb0.99,0
1649,1.37,Ba2InNdTe5,Ba2 In1 Nd1 Te5,['mp-1205400']
1650,1.37,Hg0.25Zn0.75Te,Hg0.25 Zn0.75 Te1,0
1651,1.37,GaAs0.99P0.01,Ga1 As0.99 P0.01,0
1652,1.37,Ce2YbCuS5,Ce2 Yb1 Cu1 S5,0
1653,1.37,TlS,Tl1 S1,"['mp-998912', 'mp-561066', 'mp-322', 'mp-10632']"
1654,1.37,K1.83Cd1.83Bi2.17S6,K1.83 Cd1.83 Bi2.17 S6,0
1655,1.36,Cd0.9Te0.9Al0.1Sb0.1,Cd0.9 Te0.9 Al0.1 Sb0.1,0
1656,1.36,La3CuGaSe7,La3 Cu1 Ga1 Se7,['mp-1223193']
1657,1.36,Ba2InSmTe5,Ba2 In1 Sm1 Te5,0
1658,1.36,Ba2InGdTe5,Ba2 In1 Gd1 Te5,0
1659,1.36,Ba2InYTe5,Ba2 In1 Y1 Te5,['mp-1106096']
1660,1.36,LiSbS2,Li1 Sb1 S2,"['mp-34121', 'mp-14591', 'mp-1079885', 'mp-756784']"
1661,1.35,InSb2Se4Br,In1 Sb2 Se4 Br1,['mp-570321']
1662,1.35,Ga0.01Sb0.01Cd0.99Te0.99,Ga0.01 Sb0.01 Cd0.99 Te0.99,0
1663,1.35,MnTe,Mn1 Te1,"['mp-672389', 'mp-1406', 'mp-1009222', 'mp-404', 'mp-1080073', 'mp-1079443']"
1664,1.35,Ba2InDyTe5,Ba2 In1 Dy1 Te5,['mp-1189860']
1665,1.35,WSe2,W1 Se2,"['mp-1023933', 'mp-1028698', 'mp-1821', 'mp-1025572', 'mp-1023936']"
1666,1.35,Ba2InErTe5,Ba2 In1 Er1 Te5,['mp-1106146']
1667,1.35,Nd2YbCuS5,Nd2 Yb1 Cu1 S5,0
1668,1.35,Cs3Nb2AsSe11,Cs3 Nb2 As1 Se11,['mp-683903']
1669,1.35,Ba2InCeTe5,Ba2 In1 Ce1 Te5,0
1670,1.35,K3Cr2P3S12,K3 Cr2 P3 S12,['mp-559251']
1671,1.34,CuIn5S8,Cu1 In5 S8,['mp-674514']
1672,1.33,BaIr2Ge4Se6,Ba1 Ir2 Ge4 Se6,0
1673,1.33,K2Gd2Sb2Se9,K2 Gd2 Sb2 Se9,['mp-1199482']
1674,1.33,AsNMg3,As1 N1 Mg3,['mp-1206514']
1675,1.33,Rb1.54Cd1.54Bi2.46S6,Rb1.54 Cd1.54 Bi2.46 S6,0
1676,1.32,Sn2BiSI5,Sn2 Bi1 S1 I5,0
1677,1.32,Ge0.838Si0.162,Ge0.838 Si0.162,0
1678,1.32,In0.9P0.9Ga0.1As0.1,In0.9 P0.9 Ga0.1 As0.1,0
1679,1.32,Cu0.4In1.6Se2.6,Cu0.4 In1.6 Se2.6,0
1680,1.32,Cu0.15In1.85Se2.85,Cu0.15 In1.85 Se2.85,0
1681,1.32,InSe,In1 Se1,"['mp-20485', 'mp-22691', 'mp-1079260', 'mp-21405']"
1682,1.32,Pr2Ge2Se7,Pr2 Ge2 Se7,0
1683,1.32,BiSeI,Bi1 Se1 I1,['mp-23020']
1684,1.31,K10Co4Sn4S17,K10 Co4 Sn4 S17,0
1685,1.31,PdI2O6,Pd1 I2 O6,0
1686,1.31,K2Sb8Se3,K2 Sb8 Se3,0
1687,1.31,YbIn3S6,Yb1 In3 S6,0
1688,1.31,PbCuSbS3,Pb1 Cu1 Sb1 S3,['mp-649774']
1689,1.31,EuIn2Se4,Eu1 In2 Se4,['mp-1104657']
1690,1.3,Tl3AsSe3,Tl3 As1 Se3,['mp-7684']
1691,1.3,GdTe,Gd1 Te1,"['mp-574283', 'mp-1184509']"
1692,1.3,CuInGeSe4,Cu1 In1 Ge1 Se4,['mp-1224210']
1693,1.3,Ba3Nb2Se9,Ba3 Nb2 Se9,0
1694,1.3,Hg0.9Cd0.1Se,Hg0.9 Cd0.1 Se1,0
1695,1.3,In0.99Al0.01P,In0.99 Al0.01 P1,0
1696,1.3,In0.99P0.99Ga0.01As0.01,In0.99 P0.99 Ga0.01 As0.01,0
1697,1.3,AgGaSe2,Ag1 Ga1 Se2,"['mp-5518', 'mp-1224792']"
1698,1.3,CrSi2,Cr1 Si2,"['mp-1222', 'mp-8937', 'mp-11191']"
1699,1.3,TlTiPS5,Tl1 Ti1 P1 S5,"['mp-1542940', 'mp-558747']"
1700,1.3,OsAsS,Os1 As1 S1,['mp-1214793']
1701,1.3,Rb9Bi13S24,Rb9 Bi13 S24,0
1702,1.3,MnO2,Mn1 O2,"['mp-755489', 'mvc-6353', 'mvc-5444', 'mp-1279979', 'mp-755671', 'mvc-14931', 'mp-1221542', 'mp-25223', 'mp-19395', 'mvc-10183', 'mvc-12283', 'mp-644514', 'mp-1189857', 'mp-25275', 'mp-510408', 'mp-19326', 'mp-705430', 'mp-1221574', 'mp-33009', 'mp-25424', 'mp-510732', 'mp-1105767', 'mvc-11093', 'mp-1274793']"
1703,1.3,BaSi2,Ba1 Si2,"['mp-7275', 'mp-7655', 'mp-7701', 'mp-1477', 'mp-1009827']"
1704,1.3,EuYb2Se4,Eu1 Yb2 Se4,['mp-645707']
1705,1.3,Pr2Te3,Pr2 Te3,['mp-32581']
1706,1.3,LuP,Lu1 P1,['mp-10192']
1707,1.29,Cd5Ga2S2Te6,Cd5 Ga2 S2 Te6,0
1708,1.29,KBiCu2S3,K1 Bi1 Cu2 S3,['mp-1194436']
1709,1.29,InP2Se4,In1 P2 Se4,0
1710,1.28,GaAs0.05Sb0.95,Ga1 As0.05 Sb0.95,0
1711,1.28,ErIn3S6,Er1 In3 S6,0
1712,1.28,Sm2YbCuS5,Sm2 Yb1 Cu1 S5,['mp-1215834']
1713,1.28,Cs1.43Cd1.43Bi2.57S6,Cs1.43 Cd1.43 Bi2.57 S6,0
1714,1.28,CdIn2Te4,Cd1 In2 Te4,['mp-21374']
1715,1.28,SbTeI,Sb1 Te1 I1,['mp-28051']
1716,1.27,LuIn3S6,Lu1 In3 S6,0
1717,1.27,GdB66,Gd1 B66,0
1718,1.27,YbB66,Yb1 B66,0
1719,1.27,Bi9O7.5S6,Bi9 O7.5 S6,0
1720,1.26,CuZr1.86S4,Cu1 Zr1.86 S4,0
1721,1.26,La3LuSe6,La3 Lu1 Se6,['mp-645695']
1722,1.26,Tl4Ta2S11,Tl4 Ta2 S11,['mp-18344']
1723,1.26,Cu0.2In1.8Se2.8,Cu0.2 In1.8 Se2.8,0
1724,1.25,Pr2YbCuS5,Pr2 Yb1 Cu1 S5,0
1725,1.25,HgIn2Te4,Hg1 In2 Te4,"['mp-19765', 'mp-37888']"
1726,1.25,EuN,Eu1 N1,['mp-20340']
1727,1.25,Ce1.3Lu0.7S3,Ce1.3 Lu0.7 S3,0
1728,1.25,Cd4Sb3,Cd4 Sb3,0
1729,1.25,Bi2S3,Bi2 S3,['mp-22856']
1730,1.25,In0.6As0.6Ga0.4P0.4,In0.6 As0.6 Ga0.4 P0.4,0
1731,1.24,Cu3AsS4,Cu3 As1 S4,"['mp-3345', 'mp-20545']"
1732,1.24,La2GeSe5,La2 Ge1 Se5,0
1733,1.24,Si30P16Te8,Si30 P16 Te8,0
1734,1.24,CuIn3Se5,Cu0.5 In1.5 Se2.5,['mp-1224175']
1735,1.23,Ag2S,Ag2 S1,"['mp-32669', 'mp-1229090', 'mp-32868', 'mp-38511', 'mp-556225', 'mp-31053', 'mp-560025', 'mp-32791', 'mp-32884', 'mp-610517', 'mp-36216', 'mp-1095694']"
1736,1.23,Cd3In2S2Te4,Cd3 In2 S2 Te4,0
1737,1.23,Cu2Se,Cu2 Se1,"['mp-16366', 'mp-684653', 'mp-1021499', 'mp-22297', 'mp-1225805', 'mp-1097707', 'mp-684525']"
1738,1.23,HoIn3S6,Ho1 In3 S6,0
1739,1.22,GeSe,Ge1 Se1,"['mp-10759', 'mp-700']"
1740,1.22,GaAs0.1P0.9,Ga1 As0.1 P0.9,0
1741,1.22,DyIn3S6,Dy1 In3 S6,0
1742,1.22,Tm4Sb2Se11.68,Tm4 Sb2 Se11.68,0
1743,1.22,EuIn2Te4,Eu1 In2 Te4,0
1744,1.21,Ba5Ga6SnP12,Ba5 Ga6 Sn1 P12,0
1745,1.21,KBi3S5,K1 Bi3 S5,['mp-1223584']
1746,1.21,InBi2Se4Br,In1 Bi2 Se4 Br1,['mp-571169']
1747,1.21,Cu0.3In1.7Se2.7,Cu0.3 In1.7 Se2.7,0
1748,1.2,K2RbSb,K2 Rb1 Sb1,['mp-976148']
1749,1.2,EuSb2S4,Eu1 Sb2 S4,['mp-1194437']
1750,1.2,OsSbS,Os1 Sb1 S1,0
1751,1.2,Gd1.05Sc0.95Se3,Gd1.05 Sc0.95 Se3,0
1752,1.2,IrSSe,Ir1 S1 Se1,0
1753,1.2,MoTe2,Mo1 Te2,"['mp-602', 'mp-1030319', 'mp-1120746', 'mp-1025576', 'mp-1023938', 'mp-1023935', 'mp-7459']"
1754,1.2,K2CsSb,K2 Cs1 Sb1,['mp-581024']
1755,1.2,AgPbBiS3,Ag1 Pb1 Bi1 S3,['mp-1229121']
1756,1.2,In2Se3,In2 Se3,"['mp-672673', 'mp-19907', 'mp-1017565', 'mp-612740', 'mp-20830']"
1757,1.2,La2MnNiO6,La2 Mn1 Ni1 O6,"['mp-1223253', 'mp-1188812', 'mp-1079517']"
1758,1.2,SnSe,Sn1 Se1,"['mp-2168', 'mp-691', 'mp-8936', 'mp-1205370', 'mp-628773', 'mp-1205455', 'mp-2693', 'mp-1179336']"
1759,1.2,Eu3Sb4S9,Eu3 Sb4 S9,['mp-684111']
1760,1.2,RuAsS,Ru1 As1 S1,['mp-1214786']
1761,1.2,Eu3P2,Eu3 P2,0
1762,1.2,CuBiP2Se6,Cu1 Bi1 P2 Se6,"['mp-683998', 'mp-569715']"
1763,1.2,Tl2Au2Sn2Se6,Tl2 Au2 Sn2 Se6,0
1764,1.2,Cu2CdGeSe4,Cu2 Cd1 Ge1 Se4,['mp-10967']
1765,1.2,Sb2Se3,Sb2 Se3,"['mp-2160', 'mp-672706']"
1766,1.2,TbIn3S6,Tb1 In3 S6,0
1767,1.2,RbBiS2,Rb1 Bi1 S2,['mp-30041']
1768,1.2,Se0.6Te0.4,Se0.6 Te0.4,0
1769,1.2,CuIn3S5,Cu1 In3 S5,0
1770,1.19,Cu0.35In1.65Se2.65,Cu0.35 In1.65 Se2.65,0
1771,1.18,TmAs,Tm1 As1,['mp-1101']
1772,1.18,SmIn3S6,Sm1 In3 S6,0
1773,1.18,Ag8GeS6,Ag8 Ge1 S6,['mp-9770']
1774,1.18,K8Ga8Si38,K8 Ga8 Si38,0
1775,1.18,Cu2Ga4Te7,Cu2 Ga4 Te7,0
1776,1.18,Eu3Bi4S9,Eu3 Bi4 S9,0
1777,1.18,TlPrSe2,Tl1 Pr1 Se2,['mp-999289']
1778,1.18,Rb8Ga8Si38,Rb8 Ga8 Si38,0
1779,1.17,CdIn30Te46,Cd1 In30 Te46,0
1780,1.15,Ga0.8Sb0.8Zn0.2Te0.2,Ga0.8 Sb0.8 Zn0.2 Te0.2,0
1781,1.15,La2YbCuSe5,La2 Yb1 Cu1 Se5,0
1782,1.15,NdIn3S6,Nd1 In3 S6,0
1783,1.15,Ba2GaErTe5,Ba2 Ga1 Er1 Te5,['mp-1105724']
1784,1.15,RhAs2,Rh1 As2,['mp-15954']
1785,1.15,ReSe2,Re1 Se2,"['mp-1102379', 'mp-541582']"
1786,1.15,FeIn2Se4,Fe1 In2 Se4,0
1787,1.15,Zn3P2,Zn3 P2,"['mp-7846', 'mp-2071', 'mp-1197170']"
1788,1.14,Cs8Ga8Si38,Cs8 Ga8 Si38,0
1789,1.14,KSbSe2,K1 Sb1 Se2,"['mp-9576', 'mp-542642']"
1790,1.14,PrIn3S6,Pr1 In3 S6,0
1791,1.13,GdIn3S6,Gd1 In3 S6,0
1792,1.13,OsP2,Os1 P2,['mp-2319']
1793,1.13,Ba2GaDyTe5,Ba2 Ga1 Dy1 Te5,['mp-1105922']
1794,1.13,Ge0.891Si0.109,Ge0.891 Si0.109,0
1795,1.12,EuO,Eu1 O1,['mp-21394']
1796,1.12,Ba2GaGdTe5,Ba2 Ga1 Gd1 Te5,['mp-1105573']
1797,1.12,Ce2S3,Ce2 S3,"['mp-20973', 'mp-32629']"
1798,1.12,Nd2Te3,Nd2 Te3,['mp-16380']
1799,1.12,YbSb2S4,Yb1 Sb2 S4,['mp-1194386']
1800,1.11,ZnSb,Zn1 Sb1,['mp-753']
1801,1.11,SnS0.99Se0.01,Sn1 S0.99 Se0.01,0
1802,1.11,CeIn3S6,Ce1 In3 S6,0
1803,1.1,CuZn2InSe4,Cu1 Zn2 In1 Se4,['mp-1215816']
1804,1.1,Ge0.2Si0.8,Ge0.2 Si0.8,0
1805,1.1,GaGeTe,Ga1 Ge1 Te1,['mp-8211']
1806,1.1,Li2ZnGe,Li2 Zn1 Ge1,"['mp-569115', 'mp-567389', 'mp-12411']"
1807,1.1,Ce3LuSe6,Ce3 Lu1 Se6,['mp-645694']
1808,1.1,Ce2Ge2Se7,Ce2 Ge2 Se7,0
1809,1.1,LiAsSe2,Li1 As1 Se2,"['mp-1078724', 'mp-1222395', 'mp-1079276']"
1810,1.1,Cu0.7In1.3Se2.3,Cu0.7 In1.3 Se2.3,0
1811,1.1,Na3Sb,Na3 Sb1,['mp-7956']
1812,1.1,Cu2In4Te7,Cu2 In4 Te7,0
1813,1.1,NaCd4P3,Na1 Cd4 P3,0
1814,1.1,ZnGeAs2,Zn1 Ge1 As2,"['mp-4008', 'mp-1215450', 'mp-1215440']"
1815,1.1,Hg0.7Cd0.3Se,Hg0.7 Cd0.3 Se1,0
1816,1.1,AgGaTe2,Ag1 Ga1 Te2,"['mp-1224790', 'mp-4899']"
1817,1.1,GaAs0.15Sb0.85,Ga1 As0.15 Sb0.85,0
1818,1.1,TeI4,Te1 I4,"['mp-567269', 'mp-1101136', 'mp-651155', 'mp-570884', 'mp-567914', 'mp-1217312']"
1819,1.1,GeAs2,Ge1 As2,['mp-17524']
1820,1.1,Hg0.8Cd0.2Se,Hg0.8 Cd0.2 Se1,0
1821,1.1,Zn3As2,Zn3 As2,"['mp-1196003', 'mp-1203368', 'mp-680580', 'mp-15700', 'mp-1197181', 'mp-568240', 'mp-7845']"
1822,1.1,TeI,Te1 I1,"['mp-23273', 'mp-569766']"
1823,1.09,BaRh2Ge4Se6,Ba1 Rh2 Ge4 Se6,0
1824,1.09,Ge0.001Si0.999,Ge0.001 Si0.999,0
1825,1.09,SmP,Sm1 P1,['mp-710']
1826,1.09,CuGa3Te5,Cu1 Ga3 Te5,0
1827,1.08,Cu2Te,Cu2 Te1,['mp-1861']
1828,1.08,Eu3Sb4Se9,Eu3 Sb4 Se9,['mp-1200385']
1829,1.08,La2Ge2Se7,La2 Ge2 Se7,0
1830,1.08,Ba2GaYTe5,Ba2 Ga1 Y1 Te5,['mp-1189739']
1831,1.08,Ge0.02Si0.98,Ge0.02 Si0.98,0
1832,1.08,Cu0.99In1.01Se2.01,Cu0.99 In1.01 Se2.01,0
1833,1.07,Cu0.95In1.05Se2.05,Cu0.95 In1.05 Se2.05,0
1834,1.07,Eu2SnSe5,Eu2 Sn1 Se5,['mp-1096952']
1835,1.07,CuTlSe2,Cu1 Tl1 Se2,['mp-14090']
1836,1.07,ErSe2,Er1 Se2,"['mp-1077779', 'mp-9978']"
1837,1.07,CsBiSe2,Cs1 Bi1 Se2,['mp-1096942']
1838,1.07,Cs2ZnGe3Te8,Cs2 Zn1 Ge3 Te8,0
1839,1.07,BiCuOS,Bi1 Cu1 O1 S1,0
1840,1.07,Ga0.8In0.2As,Ga0.8 In0.2 As1,0
1841,1.07,Ho2Mo3O12,Ho2 Mo3 O12,"['mp-1212381', 'mp-1196327']"
1842,1.06,Ge0.06Si0.94,Ge0.06 Si0.94,0
1843,1.06,KFeCuTe2,K1 Fe1 Cu1 Te2,0
1844,1.06,Cu0.9In1.1Se2.1,Cu0.9 In1.1 Se2.1,0
1845,1.06,CuInTe2,Cu1 In1 Te2,"['mp-1223863', 'mp-1224091', 'mp-22261']"
1846,1.05,CdP4,Cd1 P4,['mp-7904']
1847,1.05,Ce2YbCuSe5,Ce2 Yb1 Cu1 Se5,0
1848,1.05,CuSbSe2,Cu1 Sb1 Se2,['mp-20331']
1849,1.05,CuZn2InTe4,Cu1 Zn2 In1 Te4,0
1850,1.04,AgInSe2,Ag1 In1 Se2,"['mp-686712', 'mp-20554', 'mp-1223807', 'mp-1223836', 'mp-1007685', 'mp-35071']"
1851,1.04,Ge0.9355Si0.0645,Ge0.9355 Si0.0645,0
1852,1.04,Ge0.1Si0.9,Ge0.1 Si0.9,0
1853,1.04,NdAs,Nd1 As1,"['mp-1009230', 'mp-2602']"
1854,1.04,K2Cu2Sn2Se6,K2 Cu2 Sn2 Se6,0
1855,1.04,Ba2GaSmTe5,Ba2 Ga1 Sm1 Te5,['mp-1189729']
1856,1.04,Ge0.93Si0.07,Ge0.93 Si0.07,0
1857,1.04,Rb2Cu2Sn2Se6,Rb2 Cu2 Sn2 Se6,0
1858,1.03,SnS0.8Se0.2,Sn1 S0.8 Se0.2,0
1859,1.03,LaIn3S6,La1 In3 S6,0
1860,1.03,SmAs,Sm1 As1,"['mp-1738', 'mp-1009814']"
1861,1.02,PrTe2,Pr1 Te2,['mp-975652']
1862,1.02,CdIn8Te13,Cd1 In8 Te13,0
1863,1.02,Eu2Se3,Eu2 Se3,['mp-1189540']
1864,1.02,YbAs,Yb1 As1,['mp-600']
1865,1.02,GaAs0.2Sb0.8,Ga1 As0.2 Sb0.8,0
1866,1.02,Cs4BiAs3Se7,Cs4 Bi1 As3 Se7,['mp-1204289']
1867,1.02,EuBi2Se4,Eu1 Bi2 Se4,0
1868,1.02,La2CoTiO6,La2 Co1 Ti1 O6,"['mp-1078893', 'mp-1211314']"