,Eg (eV),Comp,composition,mp_ids
1869,1.01,TlCr5S8,Tl1 Cr5 S8,['mp-541823']
1870,1.01,CuIn3Te5,Cu1 In3 Te5,0
1871,1.0,Zn0.65Hg0.35Se,Zn0.65 Hg0.35 Se1,0
1872,1.0,Rb3Sb,Rb3 Sb1,"['mp-33018', 'mp-16319']"
1873,1.0,Cs2Bi8.81La1.19S16,Cs2 Bi8.81 La1.19 S16,0
1874,1.0,Ho2HfS5,Ho2 Hf1 S5,['mp-1195954']
1875,1.0,PrTe1.9,Pr1 Te1.9,0
1876,1.0,PrAs,Pr1 As1,"['mp-10622', 'mp-1009583']"
1877,1.0,LaMg2PdH7,La1 Mg2 Pd1 H7,['mp-1180682']
1878,1.0,Pb2Bi5.9La2.1S14,Pb2 Bi5.9 La2.1 S14,0
1879,1.0,RhP2,Rh1 P2,['mp-15953']
1880,1.0,YbSb,Yb1 Sb1,['mp-1916']
1881,1.0,TeSe,Se0.5 Te0.5,['mp-1217322']
1882,1.0,DyAs,Dy1 As1,"['mp-1010161', 'mp-2627']"
1883,1.0,IrAs2,Ir1 As2,['mp-15649']
1884,1.0,Tl2S,Tl2 S1,"['mp-556516', 'mp-667', 'mp-1187792']"
1885,1.0,Ga0.9Sb0.9Zn0.1Te0.1,Ga0.9 Sb0.9 Zn0.1 Te0.1,0
1886,1.0,CdAs2,Cd1 As2,['mp-471']
1887,1.0,RuP2,Ru1 P2,['mp-1413']
1888,1.0,Cs1.13Cd1.13Bi2.87Se6,Cs1.13 Cd1.13 Bi2.87 Se6,0
1889,1.0,BaGe2,Ba1 Ge2,"['mp-2139', 'mp-2611']"
1890,1.0,RuSe2,Ru1 Se2,['mp-1922']
1891,1.0,TcS2,Tc1 S2,['mp-9481']
1892,1.0,ReS2,Re1 S2,"['mp-572758', 'mp-1232344']"
1893,1.0,Ga0.7In0.3As,Ga0.7 In0.3 As1,0
1894,1.0,TiTe2,Ti1 Te2,['mp-1907']
1895,1.0,Na2KSb,Na2 K1 Sb1,['mp-15724']
1896,1.0,La4FeSb2S10,La4 Fe1 Sb2 S10,['mp-1203562']
1897,1.0,CuGaTe2,Cu1 Ga1 Te2,"['mp-676248', 'mp-3839', 'mp-1224815', 'mp-1224787', 'mp-1224825']"
1898,1.0,Ag7AsSe6,Ag7 As1 Se6,['mp-1200563']
1899,1.0,Ca2Ge,Ca2 Ge1,"['mp-304', 'mp-1009755']"
1900,1.0,TiTlS2,Ti1 Tl1 S2,0
1901,1.0,Ge0.3Si0.7,Ge0.3 Si0.7,0
1902,1.0,Na2RbSb,Na2 Rb1 Sb1,['mp-975275']
1903,1.0,BaUSe3,Ba1 U1 Se3,0
1904,1.0,Cu3VS4,Cu3 V1 S4,['mp-3762']
1905,1.0,Zn4Sb3,Zn4 Sb3,0
1906,1.0,IrP2,Ir1 P2,['mp-10155']
1907,1.0,Sr2Bi5.42La2.58S14,Sr2 Bi5.42 La2.58 S14,0
1908,1.0,Ag7AsS6,Ag7 As1 S6,['mp-15077']
1909,0.99,Li2CdGe,Li2 Cd1 Ge1,['mp-10686']
1910,0.98,SnS0.4Se0.6,Sn1 S0.4 Se0.6,0
1911,0.98,EuSb4S7,Eu1 Sb4 S7,0
1912,0.98,YbS,Yb1 S1,['mp-1820']
1913,0.97,Ba3SnSb2Se8,Ba3 Sn1 Sb2 Se8,0
1914,0.97,TlCr5S7Se,Tl1 Cr5 S7 Se1,0
1915,0.96,CuInSe2,Cu1 In1 Se2,"['mp-676764', 'mp-22811']"
1916,0.96,Er2Mo3O12,Er2 Mo3 O12,0
1917,0.96,Cu2CdSnSe4,Cu2 Cd1 Sn1 Se4,['mp-16565']
1918,0.95,TiCoSb,Ti1 Co1 Sb1,['mp-5967']
1919,0.95,EuSb2Se4,Eu1 Sb2 Se4,0
1920,0.95,Pt0.97S2,Pt0.97 S2,0
1921,0.95,Sn2S,Sn2 S1,0
1922,0.95,Hg0.6Cd0.4Se,Hg0.6 Cd0.4 Se1,0
1923,0.95,GeP,Ge1 P1,"['mp-7590', 'mp-1095275', 'mp-8373']"
1924,0.95,CsYbCoSe3,Cs1 Yb1 Co1 Se3,['mp-542948']
1925,0.95,Ca2CdAs2,Ca2 Cd1 As2,"['mp-1191256', 'mp-1095180']"
1926,0.94,TlCr5S6Se2,Tl1 Cr5 S6 Se2,0
1927,0.94,Ag1.75InSb5.75Se11,Ag1.75 In1 Sb5.75 Se11,0
1928,0.94,SnS0.25Se0.75,Sn1 S0.25 Se0.75,0
1929,0.94,Ge0.4Si0.6,Ge0.4 Si0.6,0
1930,0.93,Tl2PrInSe4,Tl2 Pr1 In1 Se4,0
1931,0.93,AgInTe2,Ag1 In1 Te2,"['mp-1223782', 'mp-22386', 'mp-1223792', 'mp-675371', 'mp-1223798']"
1932,0.93,Li2HgGe,Li2 Hg1 Ge1,['mp-16341']
1933,0.92,OsAs2,Os1 As2,['mp-2455']
1934,0.91,ZnAs2,Zn1 As2,['mp-7262']
1935,0.91,Ag2GeSe3,Ag2 Ge1 Se3,['mp-1096802']
1936,0.9,FeSi2,Fe1 Si2,"['mp-20738', 'mp-1714']"
1937,0.9,ZnSnAs2,Zn1 Sn1 As2,"['mp-5190', 'mp-1215434', 'mp-1215503']"
1938,0.9,Ge0.6Si0.4,Ge0.6 Si0.4,0
1939,0.9,In4S5,In4 S5,0
1940,0.9,AgS,Ag1 S1,0
1941,0.9,ZnAs,Zn1 As1,['mp-7372']
1942,0.9,Ca2Sn,Ca2 Sn1,"['mp-22735', 'mp-1009730']"
1943,0.9,ErTe,Er1 Te1,['mp-1280']
1944,0.9,RbBiSe2,Rb1 Bi1 Se2,0
1945,0.9,KSb,K1 Sb1,['mp-1536']
1946,0.9,Sn2BiS2I3,Sn2 Bi1 S2 I3,0
1947,0.9,RuSbSe,Ru1 Sb1 Se1,0
1948,0.9,IrSe2,Ir1 Se2,['mp-1361']
1949,0.9,IrS2,Ir1 S2,"['mp-1102261', 'mp-2833']"
1950,0.9,Tl2Hg3Te4,Tl2 Hg3 Te4,0
1951,0.9,TiS3,Ti1 S3,"['mp-9920', 'mp-559374']"
1952,0.9,SrGe2,Sr1 Ge2,"['mp-7390', 'mp-1244']"
1953,0.9,PbSnS3,Pb1 Sn1 S3,['mp-1188095']
1954,0.9,Cs4Cu3Bi9S17,Cs4 Cu3 Bi9 S17,0
1955,0.9,Er3Te4,Er3 Te4,0
1956,0.9,Er2Te3,Er2 Te3,['mp-14643']
1957,0.9,Cr2S3,Cr2 S3,"['mp-849083', 'mp-849081', 'mp-555569', 'mp-13685']"
1958,0.9,KBiS2,K1 Bi1 S2,"['mp-1223443', 'mp-1223433']"
1959,0.9,AgBiS2,Ag1 Bi1 S2,"['mp-1172905', 'mp-675977', 'mp-985828', 'mp-29678', 'mp-1173060']"
1960,0.89,TlCr5S5Se3,Tl1 Cr5 S5 Se3,0
1961,0.89,SnS0.01Se0.99,Sn1 S0.01 Se0.99,0
1962,0.88,Tl2InGaTe4,Tl2 In1 Ga1 Te4,0
1963,0.88,Ge0.7Si0.3,Ge0.7 Si0.3,0
1964,0.88,Cu3YSe3,Cu3 Y1 Se3,['mp-1216202']
1965,0.88,GeSi,Ge1 Si1,"['mp-1219182', 'mp-1096549', 'mp-978534']"
1966,0.88,TcSe2,Tc1 Se2,0
1967,0.88,SiAs2,Si1 As2,"['mp-978553', 'mp-21268']"
1968,0.86,Ge0.8Si0.2,Ge0.8 Si0.2,0
1969,0.85,In0.8As0.8Ga0.2P0.2,In0.8 As0.8 Ga0.2 P0.2,0
1970,0.85,Cd6P7,Cd6 P7,0
1971,0.85,CuCd2InTe4,Cu1 Cd2 In1 Te4,0
1972,0.85,TlCr5S4Se4,Tl1 Cr5 S4 Se4,0
1973,0.85,Cu2GeSe3,Cu2 Ge1 Se3,"['mp-4728', 'mp-1225866', 'mp-677105']"
1974,0.85,Ga0.95Sb0.95Zn0.05Te0.05,Ga0.95 Sb0.95 Zn0.05 Te0.05,0
1975,0.85,La4FeSb2Se10,La4 Fe1 Sb2 Se10,['mp-1200263']
1976,0.85,TlScTe2,Tl1 Sc1 Te2,['mp-13314']
1977,0.85,AgTe,Ag1 Te1,['mp-568761']
1978,0.85,Ga2GeTe3,Ga2 Ge1 Te3,0
1979,0.84,Ge0.88Si0.12,Ge0.88 Si0.12,0
1980,0.84,Ag2SnSe3,Ag2 Sn1 Se3,['mp-1096812']
1981,0.82,TlSbSe2,Tl1 Sb1 Se2,"['mp-1100988', 'mp-1216592', 'mp-567318', 'mp-19846', 'mp-37710']"
1982,0.82,NaSb,Na1 Sb1,['mp-7944']
1983,0.82,GaSb,Ga1 Sb1,"['mp-1245217', 'mp-1156', 'mp-1245088', 'mp-1224785', 'mp-1018059', 'mp-1244877', 'mp-1245146', 'mp-684664', 'mp-1244895']"
1984,0.82,BiCuOSe,Bi1 Cu1 O1 Se1,['mp-23116']
1985,0.82,Mg3Sb2,Mg3 Sb2,"['mp-2646', 'mp-1196139']"
1986,0.81,Ga0.6In0.4As,Ga0.6 In0.4 As1,0
1987,0.8,Hg0.5Cd0.5Se,Hg0.5 Cd0.5 Se1,0
1988,0.8,PdO,Pd1 O1,"['mp-1336', 'mp-10728', 'mp-603251']"
1989,0.8,AgAsTe2,Ag1 As1 Te2,0
1990,0.8,TlCr5S3Se5,Tl1 Cr5 S3 Se5,0
1991,0.8,CsSb,Cs1 Sb1,"['mp-1204039', 'mp-573514']"
1992,0.8,Ga0.8Sb0.8Cd0.2Te0.2,Ga0.8 Sb0.8 Cd0.2 Te0.2,0
1993,0.8,SmB66,Sm1 B66,0
1994,0.8,Mn11Si19,Mn11 Si19,['mp-567968']
1995,0.8,SrZrS3,Sr1 Zr1 S3,"['mp-558760', 'mp-5193']"
1996,0.8,Ge0.9Si0.1,Ge0.9 Si0.1,0
1997,0.8,YB66,Y1 B66,0
1998,0.8,RuPAs,Ru1 P1 As1,0
1999,0.8,PtS,Pt1 S1,"['mp-1205321', 'mp-288']"
2000,0.8,GeSn,Ge1 Sn1,['mp-995181']
2001,0.8,Tl3CuNb2Se12,Tl3 Cu1 Nb2 Se12,['mp-570757']
2002,0.8,Cu4Sn7S16,Cu4 Sn7 S16,"['mp-530411', 'mp-675137']"
2003,0.8,PtP2,Pt1 P2,['mp-730']
2004,0.8,K4GeS4,K4 Ge1 S4,['mp-556627']
2005,0.8,Rh2S3,Rh2 S3,"['mp-17173', 'mp-974381']"
2006,0.8,Pb6Sb6Se17,Pb6 Sb6 Se17,0
2007,0.8,RbBi3Se4Te,Rb1 Bi3 Se4 Te1,0
2008,0.8,Zn0.55Hg0.45Se,Zn0.55 Hg0.45 Se1,0
2009,0.8,Ge40.0Te5.3I8,Ge40 Te5.3 I8,0
2010,0.8,Na2CsSb,Na2 Cs1 Sb1,['mp-1096304']
2011,0.8,RuAs2,Ru1 As2,['mp-766']
2012,0.8,LaSb,La1 Sb1,"['mp-10177', 'mp-1065']"
2013,0.79,Ba3Sn0.87Bi2.13Se8,Ba3 Sn0.87 Bi2.13 Se8,0
2014,0.79,Pb0.999Se0.999Bi0.002Te0.003,Pb0.999 Se0.999 Bi0.002 Te0.003,0
2015,0.79,TlScSe2,Tl1 Sc1 Se2,['mp-13313']
2016,0.78,Bi2Te0.1Se2.9,Bi2 Te0.1 Se2.9,0
2017,0.78,Ga0.9Sb0.9Cd0.1Te0.1,Ga0.9 Sb0.9 Cd0.1 Te0.1,0
2018,0.78,TlTaS3,Tl1 Ta1 S3,['mp-10795']
2019,0.77,FeSc2,Fe1 Sc2,0
2020,0.76,In0.99As0.99Cd0.01Te0.01,In0.99 As0.99 Cd0.01 Te0.01,0
2021,0.76,V3As2O9,V3 As2 O9,"['mp-1216491', 'mp-1194395']"
2022,0.75,PdS2,Pd1 S2,['mp-13682']
2023,0.75,TlCr5S2Se6,Tl1 Cr5 S2 Se6,0
2024,0.75,Sr3GeSb2Se8,Sr3 Ge1 Sb2 Se8,0
2025,0.75,PtS2,Pt1 S2,['mp-762']
2026,0.75,Ga0.5In0.5As,Ga0.5 In0.5 As1,0
2027,0.75,Cu3SbS4,Cu3 Sb1 S4,"['mp-22171', 'mp-649627', 'mp-5702']"
2028,0.75,Zn0.5Hg0.5Se,Zn0.5 Hg0.5 Se1,0
2029,0.75,YbSnTe2,Yb1 Sn1 Te2,0
2030,0.74,Sr8.007Ge2.043Bi7.949Se24,Sr8.007 Ge2.043 Bi7.949 Se24,0
2031,0.74,Ga0.95Sb0.95Cd0.05Te0.05,Ga0.95 Sb0.95 Cd0.05 Te0.05,0
2032,0.74,AsTe,As1 Te1,['mp-10051']
2033,0.74,Gd2Te3,Gd2 Te3,['mp-1105966']
2034,0.73,In0.98As0.98Cd0.02Te0.02,In0.98 As0.98 Cd0.02 Te0.02,0
2035,0.72,Ga0.99Sb0.99Zn0.01Te0.01,Ga0.99 Sb0.99 Zn0.01 Te0.01,0
2036,0.72,Bi6Cu3S10I,Bi6 Cu3 S10 I1,0
2037,0.72,Ga0.99Sb0.99Hg0.01Te0.01,Ga0.99 Sb0.99 Hg0.01 Te0.01,0
2038,0.72,AgTlSe2,Ag1 Tl1 Se2,['mp-27944']
2039,0.72,Cu3YTe3,Cu3 Y1 Te3,['mp-1216225']
2040,0.72,Ga1.001Sb0.999Te0.003,Ga1.001 Sb0.999 Te0.003,0
2041,0.72,Ga0.99Sb0.99Cd0.01Te0.01,Ga0.99 Sb0.99 Cd0.01 Te0.01,0
2042,0.72,Ge0.92Si0.08,Ge0.92 Si0.08,0
2043,0.71,In0.97As0.97Cd0.03Te0.03,In0.97 As0.97 Cd0.03 Te0.03,0
2044,0.71,Ag8SnSe6,Ag8 Sn1 Se6,['mp-17984']
2045,0.71,TlCr5SSe7,Tl1 Cr5 S1 Se7,0
2046,0.71,Ga1.001Sb0.999Se0.003,Ga1.001 Sb0.999 Se0.003,0
2047,0.7,Bi2Te0.4Se2.6,Bi2 Te0.4 Se2.6,0
2048,0.7,La2HfS5,La2 Hf1 S5,['mp-1197947']
2049,0.7,KBiSe2,K1 Bi1 Se2,"['mp-36539', 'mp-1223436']"
2050,0.7,Ga1.1Sb0.9Te0.3,Ga1.1 Sb0.9 Te0.3,0
2051,0.7,Mn15Si26,Mn15 Si26,['mp-752']
2052,0.7,Cu2SnSe3,Cu2 Sn1 Se3,"['mp-1191849', 'mp-11658', 'mp-1200177', 'mp-1225786']"
2053,0.7,Ga1.002Sb0.998Te0.006,Ga1.002 Sb0.998 Te0.006,0
2054,0.7,Sm2Te3,Sm2 Te3,['mp-684911']
2055,0.7,In6S7,In6 S7,['mp-555853']
2056,0.7,RhSSe,Rh1 S1 Se1,0
2057,0.7,Sm2Sn3Se9,Sm2 Sn3 Se9,0
2058,0.7,Rh0.67Se2,Rh0.67 Se2,0
2059,0.7,GaAs0.99Sb0.01,Ga1 As0.99 Sb0.01,0
2060,0.7,Hg0.4Cd0.6Se,Hg0.4 Cd0.6 Se1,0
2061,0.7,Ga1.002Sb0.998Se0.006,Ga1.002 Sb0.998 Se0.006,0
2062,0.7,Nd2HfS5,Nd2 Hf1 S5,['mp-1196123']
2063,0.7,Se0.4Te0.6,Se0.4 Te0.6,0
2064,0.7,La2O2FeSe2,La2 O2 Fe1 Se2,"['mp-1078132', 'mp-1201876']"
2065,0.7,Ru2Si3,Ru2 Si3,"['mp-22192', 'mp-20191', 'mp-669501']"
2066,0.7,RhSe3,Rh1 Se3,0
2067,0.7,LiMgAs,Li1 Mg1 As1,['mp-12558']
2068,0.7,Li3Bi,Li3 Bi1,['mp-23222']
2069,0.7,CuInCd2Te3,Cu1 In1 Cd2 Te3,0
2070,0.7,CeN,Ce1 N1,['mp-2493']
2071,0.69,In0.96As0.96Cd0.04Te0.04,In0.96 As0.96 Cd0.04 Te0.04,0
2072,0.69,Ga0.95Sb0.95Hg0.05Te0.05,Ga0.95 Sb0.95 Hg0.05 Te0.05,0
2073,0.69,In0.9As0.9Cd0.1Te0.1,In0.9 As0.9 Cd0.1 Te0.1,0
2074,0.69,In2Se,In2 Se1,['mp-627397']
2075,0.69,Dy2Te3,Dy2 Te3,"['mp-1207258', 'mp-1188427']"
2076,0.69,Tl2Te3,Tl2 Te3,"['mp-680731', 'mp-29711']"
2077,0.68,GaAs0.65Sb0.35,Ga1 As0.65 Sb0.35,0
2078,0.68,In0.95As0.95Cd0.05Te0.05,In0.95 As0.95 Cd0.05 Te0.05,0
2079,0.68,In2GeTe3,In2 Ge1 Te3,0
2080,0.68,In0.93As0.93Cd0.07Te0.07,In0.93 As0.93 Cd0.07 Te0.07,0
2081,0.68,AgIn3Te5,Ag1 In3 Te5,0
2082,0.68,Ga1.05Sb0.95Te0.15,Ga1.05 Sb0.95 Te0.15,0
2083,0.68,In0.94As0.94Cd0.06Te0.06,In0.94 As0.94 Cd0.06 Te0.06,0
2084,0.68,Ga1.01Sb0.99Te0.03,Ga1.01 Sb0.99 Te0.03,0
2085,0.68,Ga1.02Sb0.98Te0.06,Ga1.02 Sb0.98 Te0.06,0
2086,0.68,Ga1.005Sb0.995Te0.015,Ga1.005 Sb0.995 Te0.015,0
2087,0.68,LiSbSe2,Li1 Sb1 Se2,"['mp-37480', 'mp-1222277']"
2088,0.68,Bi2Cu0.96Se3I,Bi2 Cu0.96 Se3 I1,0
2089,0.67,Tl2SeAs2Te3,Tl2 Se1 As2 Te3,0
2090,0.67,TlCr5Se8,Tl1 Cr5 Se8,['mp-3407']
2091,0.67,GaAs0.7Sb0.3,Ga1 As0.7 Sb0.3,0
2092,0.67,AgSbSe2,Ag1 Sb1 Se2,"['mp-1229000', 'mp-33683', 'mp-1229008']"
2093,0.67,Ge0.97Si0.03,Ge0.97 Si0.03,0
2094,0.67,Be3Sb2,Be3 Sb2,0
2095,0.67,Ga1.1Sb0.9Se0.3,Ga1.1 Sb0.9 Se0.3,0
2096,0.66,V2O4,V2 O4,"['mvc-13110', 'mp-715517', 'mp-634430', 'mp-1245012', 'mp-1314858', 'mvc-11573', 'mp-547074', 'mvc-10109', 'mvc-11089', 'mp-1094031', 'mp-1102963', 'mp-1287710', 'mp-636746', 'mp-777469', 'mp-1277428', 'mp-1245047', 'mp-19094', 'mvc-12615', 'mp-849511', 'mp-777479', 'mp-1245059', 'mp-559445', 'mp-25283', 'mp-1190609', 'mp-1297038', 'mp-541404', 'mp-1021522', 'mp-566801', 'mp-1100908', 'mp-1293568', 'mp-714944', 'mvc-11154', 'mp-25199', 'mvc-13223', 'mp-20593', 'mp-20974', 'mvc-5548', 'mp-1297307', 'mp-715553', 'mp-1178787', 'mp-1297456', 'mp-755394', 'mp-1272932', 'mvc-5310', 'mp-1281814', 'mp-714960', 'mvc-6393', 'mp-1285965', 'mp-1315852', 'mp-714931', 'mvc-11624', 'mp-715035', 'mp-1273390', 'mp-1292869', 'mp-755411']"
2097,0.66,GaAs0.86Sb0.14,Ga1 As0.86 Sb0.14,0
2098,0.66,Ga1.05Sb0.95Se0.15,Ga1.05 Sb0.95 Se0.15,0
2099,0.66,Mg2Co,Mg2 Co1,0
2100,0.66,PrSb,Pr1 Sb1,"['mp-1785', 'mp-1644']"
2101,0.65,Ge0.999Si0.001,Ge0.999 Si0.001,0
2102,0.65,Ga0.9Sb0.9Hg0.1Te0.1,Ga0.9 Sb0.9 Hg0.1 Te0.1,0
2103,0.65,PdP2,Pd1 P2,['mp-28266']
2104,0.65,GaAs0.75Sb0.25,Ga1 As0.75 Sb0.25,0
2105,0.65,Pb4Sb6Se13,Pb4 Sb6 Se13,0
2106,0.65,Cu3AsSe4,Cu3 As1 Se4,['mp-675626']
2107,0.65,CsAg5Te3,Cs1 Ag5 Te3,['mp-9206']
2108,0.64,NiS2,Ni1 S2,"['mp-1180046', 'mp-850131', 'mvc-11598', 'mp-850068', 'mp-849059', 'mp-849053', 'mp-849092', 'mp-1103643', 'mvc-7056', 'mp-849079', 'mp-2282', 'mp-1094089', 'mvc-1', 'mp-849075']"
2109,0.64,Ga1.005Sb0.995Se0.015,Ga1.005 Sb0.995 Se0.015,0
2110,0.64,Ce2O2FeSe2,Ce2 O2 Fe1 Se2,"['mp-1227248', 'mp-1078159']"
2111,0.64,K4GeSe4,K4 Ge1 Se4,['mp-568847']
2112,0.64,KRbBi8Se13,K1 Rb1 Bi8 Se13,0
2113,0.64,In4Se3,In4 Se3,['mp-19932']
2114,0.64,Na8Al8Si38,Na8 Al8 Si38,0
2115,0.63,Ga1.02Sb0.98Se0.06,Ga1.02 Sb0.98 Se0.06,0
2116,0.63,GdAs,Gd1 As1,['mp-510374']
2117,0.63,CuGa2Se4,Cu1 Ga2 Se4,0
2118,0.62,Cs2Sb,Cs2 Sb1,['mp-1191118']
2119,0.62,Ga1.01Sb0.99Se0.03,Ga1.01 Sb0.99 Se0.03,0
2120,0.62,TlInTe2,Tl1 In1 Te2,['mp-22791']
2121,0.61,CdGeAs2,Cd1 Ge1 As2,['mp-4953']
2122,0.6,DyTe1.40,Dy1 Te1.4,0
2123,0.6,Tl2.35Sb8.65Se14,Tl2.35 Sb8.65 Se14,0
2124,0.6,K2.15Pb1.7Sb8.15Se15,K2.15 Pb1.7 Sb8.15 Se15,0
2125,0.6,EuSnTe2,Eu1 Sn1 Te2,0
2126,0.6,OsP4,Os1 P4,"['mp-1087509', 'mp-1103842']"
2127,0.6,CoAsS,Co1 As1 S1,"['mp-16363', 'mp-4627', 'mp-613314', 'mp-3699', 'mp-553946']"
2128,0.6,RhSe2,Rh1 Se2,"['mp-983', 'mp-1192175']"
2129,0.6,ZrC,Zr1 C1,"['mp-1009878', 'mp-2795', 'mp-1009894', 'mp-1014307']"
2130,0.6,MnSi,Mn1 Si1,['mp-1431']
2131,0.6,CdIn,Cd1 In1,['mp-1183669']
2132,0.6,DyTe1.45,Dy1 Te1.45,0
2134,0.6,Eu7Ga6Sb8,Eu7 Ga6 Sb8,0
2135,0.6,Eu3As2,Eu3 As2,0
2136,0.6,Cs3As,Cs3 As1,"['mp-542220', 'mp-1185538']"
2137,0.6,FeAsSe,Fe1 As1 Se1,['mp-1101894']
2138,0.6,HgIn2Se4,Hg1 In2 Se4,['mp-20731']
2139,0.59,SiSn,Si1 Sn1,['mp-1009813']
2140,0.59,Pb0.99TeTl0.01,Pb0.99 Te1 Tl0.01,0
2141,0.59,SmSb,Sm1 Sb1,['mp-2281']
2142,0.59,SnSi,Sn1 Si1,['mp-1009813']
2143,0.58,Eu3Se4,Eu3 Se4,0
2144,0.58,MnAl3,Mn1 Al3,0
2145,0.57,Pb0.96TeTl0.04,Pb0.96 Te1 Tl0.04,0
2146,0.57,CdSb,Cd1 Sb1,"['mp-1321', 'mp-1226724']"
2147,0.56,TlSe,Tl1 Se1,"['mp-1836', 'mp-10647']"
2148,0.56,TiTlSe2,Ti1 Tl1 Se2,0
2149,0.56,Pb0.61Ge0.39Te,Pb0.61 Ge0.39 Te1,0
2150,0.55,Hg0.3Cd0.7Se,Hg0.3 Cd0.7 Se1,0
2151,0.55,PrO,Pr1 O1,['mp-11344']
2152,0.55,Ga0.28In0.72As,Ga0.28 In0.72 As1,0
2153,0.55,CsBi2,Cs1 Bi2,['mp-23163']
2154,0.55,ZrNiSb,Zr1 Ni1 Sb1,['mp-20697']
2155,0.55,Cs3Bi,Cs3 Bi1,['mp-635413']
2156,0.55,In4Te3,In4 Te3,['mp-617281']
2157,0.55,PtAs2,Pt1 As2,['mp-2513']
2158,0.54,EuSb4Te7,Eu1 Sb4 Te7,0
2159,0.54,Ag0.2Cd0.75In2.1Te4,Ag0.2 Cd0.75 In2.1 Te4,0
2160,0.54,Pb0.93TeTl0.07,Pb0.93 Te1 Tl0.07,0
2161,0.54,Cd3P2,Cd3 P2,"['mp-21185', 'mp-1197202', 'mp-2441']"
2162,0.54,LaP,La1 P1,['mp-2384']
2163,0.53,Pb0.99TeIn0.01,Pb0.99 Te1 In0.01,0
2164,0.53,Cu2GeS3,Cu2 Ge1 S3,"['mp-1072589', 'mp-1225871', 'mp-15252']"
2165,0.53,K1.25Pb3.5Bi7.25Se15,K1.25 Pb3.5 Bi7.25 Se15,0
2166,0.52,Cu3GdTe3,Cu3 Gd1 Te3,0
2167,0.52,SmSnTe2,Sm1 Sn1 Te2,0
2168,0.51,Pb0.6Ge0.4Te,Pb0.6 Ge0.4 Te1,0
2169,0.51,Sm3Te4,Sm3 Te4,['mp-571144']
2170,0.5,PdS,Pd1 S1,['mp-20250']
2171,0.5,Ce4Te7,Ce4 Te7,0
2172,0.5,TlBiTe3,Tl1 Bi1 Te3,0
2173,0.5,Ge2Sb2Te5,Ge2 Sb2 Te5,"['mp-1224375', 'mp-3534', 'mp-1224407']"
2174,0.5,TlPSe2,Tl1 P1 Se2,0
2175,0.5,RuSbTe,Ru1 Sb1 Te1,['mp-1102857']
2176,0.5,CoSb3,Co1 Sb3,['mp-1317']
2177,0.5,Nd2Sn3Se9,Nd2 Sn3 Se9,0
2178,0.5,Na7Co2O6,Na7 Co2 O6,['mp-19427']
2179,0.5,Ho2S3,Ho2 S3,"['mp-978093', 'mp-32787', 'mp-8956', 'mp-878']"
2180,0.5,RhSbTe,Rh1 Sb1 Te1,['mp-1219458']
2181,0.5,Ga0.2In0.8As,Ga0.2 In0.8 As1,0
2182,0.49,Pb0.59Ge0.41Te,Pb0.59 Ge0.41 Te1,0
2183,0.49,La2MoO5,La2 Mo1 O5,['mp-1105399']
2184,0.49,Pb0.9Mn0.1Te,Pb0.9 Mn0.1 Te1,0
2185,0.48,Pb0.995TeTl0.005,Pb0.995 Te1 Tl0.005,0
2186,0.48,BaCu2SnSe4,Ba1 Cu2 Sn1 Se4,['mp-12364']
2187,0.48,NdTe2,Nd1 Te2,['mp-2550']
2188,0.48,AgSbTe2,Ag1 Sb1 Te2,"['mp-1229003', 'mp-12360', 'mp-1247876', 'mp-12359', 'mp-1247932', 'mp-1229025']"
2189,0.48,Pb0.7Ge0.3Te,Pb0.7 Ge0.3 Te1,0
2190,0.48,RbBi3Se5,Rb1 Bi3 Se5,"['mp-1209327', 'mp-1209506']"
2191,0.47,AgIn5Te8,Ag1 In5 Te8,['mp-569813']
2192,0.47,AgInCd2Te3,Ag1 In1 Cd2 Te3,0
2193,0.47,Sn3As2,Sn3 As2,0
2194,0.47,NaSbTe2,Na1 Sb1 Te2,"['mp-1220883', 'mp-1220876']"
2195,0.47,K2Bi8Se13,K2 Bi8 Se13,"['mp-1224244', 'mp-28800']"
2196,0.46,RbNb4Br11,Rb1 Nb4 Br11,['mp-1201070']
2197,0.46,Cu3TbTe3,Cu3 Tb1 Te3,['mp-1217851']
2198,0.46,SmSe,Sm1 Se1,"['mp-10643', 'mp-1447']"
2199,0.46,In2Te,In2 Te1,0
2200,0.46,Pr4Te7,Pr4 Te7,0
2201,0.46,BiTeI,Bi1 Te1 I1,['mp-22965']
2202,0.46,VFeSb,V1 Fe1 Sb1,"['mp-10756', 'mp-567636', 'mp-1077808', 'mp-1071423']"
2203,0.45,NaBa2Cu3S5,Na1 Ba2 Cu3 S5,['mp-1191092']
2204,0.45,La2NiVO6,La2 Ni1 V1 O6,0
2205,0.45,Rb1.45Pb3.1Sb7.45Se15,Rb1.45 Pb3.1 Sb7.45 Se15,0
2206,0.45,Eu3In2P4,Eu3 In2 P4,['mp-1188263']
2207,0.45,Hg0.2Cd0.8Se,Hg0.2 Cd0.8 Se1,0
2208,0.45,PdPAs,Pd1 P1 As1,0
2209,0.45,CoP3,Co1 P3,['mp-1944']
2210,0.45,Ir0.67Se2,Ir0.67 Se2,0
2211,0.45,In0.9As0.9Ga0.1P0.1,In0.9 As0.9 Ga0.1 P0.1,0
2212,0.44,Pb0.75Ge0.25Te,Pb0.75 Ge0.25 Te1,0
2213,0.44,EuBi2Te4,Eu1 Bi2 Te4,0
2214,0.43,Pb0.995TeIn0.005,Pb0.995 Te1 In0.005,0
2215,0.43,CsSbTe2,Cs1 Sb1 Te2,0
2216,0.43,CsBi3Se5,Cs1 Bi3 Se5,['mp-567928']
2217,0.43,InAs,In1 As1,"['mp-20305', 'mp-641533', 'mp-1007652', 'mp-20412', 'mp-21391']"
2218,0.43,CuFeS2,Cu1 Fe1 S2,"['mp-753211', 'mp-3497', 'mp-1096975', 'mp-640073', 'mp-1224949']"
2219,0.43,La3Te4,La3 Te4,['mp-879']
2220,0.43,Ir2Sn3Se3,Ir2 Sn3 Se3,['mp-1194504']
2221,0.42,Ag0.4Cd0.2In2.4Te4,Ag0.4 Cd0.2 In2.4 Te4,0
2222,0.42,TiNiSb,Ti1 Ni1 Sb1,"['mp-581712', 'mp-20952']"
2223,0.42,Pb0.99TeGa0.01,Pb0.99 Te1 Ga0.01,0
2224,0.42,Zn0.4Hg0.6Se,Zn0.4 Hg0.6 Se1,0
2225,0.41,InAsI,In1 As1 I1,0
2226,0.41,La2CoVO6,La2 Co1 V1 O6,0
2227,0.41,PbS,Pb1 S1,"['mp-557719', 'mp-1087486', 'mp-1018115', 'mp-1079101', 'mp-1078696', 'mp-20526', 'mp-1078944', 'mp-1012435', 'mp-1067627', 'mp-1057015', 'mp-21276', 'mp-1079543', 'mp-561320', 'mp-1067933', 'mp-1018019', 'mp-1091375', 'mp-1009551', 'mp-21039', 'mp-1078500']"
2228,0.4,AlBi,Al1 Bi1,['mp-1018132']
2229,0.4,PdSe2,Pd1 Se2,"['mp-1120759', 'mp-2418']"
2230,0.4,OsSbSe,Os1 Sb1 Se1,0
2231,0.4,Pb0.8Ge0.2Te,Pb0.8 Ge0.2 Te1,0
2232,0.4,PtPAs,Pt1 P1 As1,['mp-1228792']
2233,0.4,Cu3SbSe4,Cu3 Sb1 Se4,"['mp-9814', 'mp-1225801']"
2234,0.4,Pb0.7Ge0.3Se,Pb0.7 Ge0.3 Se1,0
2235,0.4,ZnSnSb2,Zn1 Sn1 Sb2,"['mp-1215452', 'mp-676663', 'mp-4756']"
2236,0.4,Pb0.95Te0.95Ge0.05S0.05,Pb0.95 Te0.95 Ge0.05 S0.05,0
2237,0.4,SnGe,Sn1 Ge1,['mp-995181']
2238,0.4,CoAs3,Co1 As3,['mp-452']
2239,0.4,BiSe,Bi1 Se1,"['mp-568844', 'mp-27902', 'mp-1078607', 'mp-1063755', 'mp-1182022', 'mp-1063764', 'mp-570286']"
2240,0.4,CoPS,Co1 P1 S1,['mp-1226003']
2241,0.4,FeAsS,Fe1 As1 S1,['mp-561511']
2242,0.4,Bi2Se3,Bi2 Se3,"['mp-541837', 'mp-1198150', 'mp-23164']"
2243,0.4,LiMgBi,Li1 Mg1 Bi1,['mp-570213']
2244,0.4,Se0.2Te0.8,Se0.2 Te0.8,0
2245,0.4,Fe2TiSi,Fe2 Ti1 Si1,['mp-866141']
2246,0.4,Bi8Te7S5,Bi8 Te7 S5,0
2247,0.39,Ag0.25Cd0.5In2.25Te4,Ag0.25 Cd0.5 In2.25 Te4,0
2248,0.39,K1.46Sn3.09Bi7.45Se15,K1.46 Sn3.09 Bi7.45 Se15,0
2249,0.38,RbSbTe2,Rb1 Sb1 Te2,0
2250,0.38,RuP4,Ru1 P4,"['mp-1080439', 'mp-27173']"
2251,0.38,NaBiS2,Na1 Bi1 S2,"['mp-1221125', 'mp-1173043', 'mp-1221122', 'mp-675531']"
2252,0.38,TlSbTe3,Tl1 Sb1 Te3,0
2253,0.37,Tl2Se,Tl2 Se1,0
2254,0.37,Pb0.995TeGa0.005,Pb0.995 Te1 Ga0.005,0
2255,0.37,Th2Se5,Th2 Se5,['mp-2392']
2256,0.37,PbSe0.01S0.99,Pb1 Se0.01 S0.99,0
2257,0.37,Pb0.95Mn0.05Te,Pb0.95 Mn0.05 Te1,0
2258,0.37,Tl2GeTe3,Tl2 Ge1 Te3,['mp-29034']
2259,0.37,Pb0.96TeGa0.04,Pb0.96 Te1 Ga0.04,0
2260,0.37,Pb0.96TeIn0.04,Pb0.96 Te1 In0.04,0
2261,0.36,Pb0.85Ge0.15Te,Pb0.85 Ge0.15 Te1,0
2262,0.36,Pb0.8Se0.8Ge0.2Te0.2,Pb0.8 Se0.8 Ge0.2 Te0.2,0
2263,0.35,Hg0.7Cd0.3Te,Hg0.7 Cd0.3 Te1,0
2264,0.35,NaBiSe2,Na1 Bi1 Se2,"['mp-35015', 'mp-1221101', 'mp-1221097']"
2265,0.35,Hg0.1Cd0.9Se,Hg0.1 Cd0.9 Se1,0
2266,0.35,Pb0.9Ge0.1Te,Pb0.9 Ge0.1 Te1,0
2267,0.35,Pb0.8Ge0.2Se,Pb0.8 Ge0.2 Se1,0
2268,0.35,Hg0.63Cd0.37Te,Hg0.63 Cd0.37 Te1,0
2269,0.35,CoP2,Co1 P2,['mp-14285']
2270,0.35,InSb0.99As0.01,In1 Sb0.99 As0.01,0
2271,0.35,DyTe1.7,Dy1 Te1.7,0
2272,0.34,Pb0.98Te0.98Ge0.02S0.02,Pb0.98 Te0.98 Ge0.02 S0.02,0
2273,0.34,Pb0.85Se0.85Ge0.15S0.15,Pb0.85 Se0.85 Ge0.15 S0.15,0
2274,0.34,Ru2Ge3,Ru2 Ge3,"['mp-706531', 'mp-21945']"
2275,0.34,Cu3DyTe3,Cu3 Dy1 Te3,['mp-1225395']
2276,0.34,Pb0.93TeGa0.07,Pb0.93 Te1 Ga0.07,0
2277,0.34,AgBiSe2,Ag1 Bi1 Se2,"['mp-27916', 'mp-33618', 'mp-1229087']"
2278,0.34,Fe2Te3,Fe2 Te3,['mp-685077']
2279,0.34,YbSb2Te4,Yb1 Sb2 Te4,['mp-675892']
2280,0.34,In6Se7,In6 Se7,['mp-567596']
2281,0.34,Pb0.95Ge0.05Te,Pb0.95 Ge0.05 Te1,0
2282,0.33,K2Ta15O32,K2 Ta15 O32,['mp-28530']